
     Program PWSCF v.5.3.0 (svn rev. 11974) starts on 30Nov2016 at 17:20:55 

     This program is part of the open-source Quantum ESPRESSO suite
     for quantum simulation of materials; please cite
         "P. Giannozzi et al., J. Phys.:Condens. Matter 21 395502 (2009);
          URL http://www.quantum-espresso.org", 
     in publications or presentations arising from this work. More details at
     http://www.quantum-espresso.org/quote

     Parallel version (MPI), running on    16 processors
     R & G space division:  proc/nbgrp/npool/nimage =      16
     Reading input from InAsSb_Ideal_Bulk_PAW.in

     Current dimensions of program PWSCF are:
     Max number of different atomic species (ntypx) = 10
     Max number of k-points (npk) =  40000
     Max angular momentum in pseudopotentials (lmaxx) =  3
               file In.pbe-dn-kjpaw_psl.0.2.2.UPF: wavefunction(s)  5S 5P renormalized
               file Sb.pbe-n-kjpaw_psl.0.3.1.UPF: wavefunction(s)  5S 5P renormalized

     Subspace diagonalization in iterative solution of the eigenvalue problem:
     one sub-group per k-point group (pool) will be used
     scalapack distributed-memory algorithm (size of sub-group:  2*  2 procs)


     Parallelization info
     --------------------
     sticks:   dense  smooth     PW     G-vecs:    dense   smooth      PW
     Min          99      99     28                 2995     2995     467
     Max         100     100     30                 2998     2998     470
     Sum        1597    1597    465                47937    47937    7497


     Title: 
     InAsBulk_PAW                                                               


     bravais-lattice index     =            0
     lattice parameter (alat)  =       1.8897  a.u.
     unit-cell volume          =    1749.6979 (a.u.)^3
     number of atoms/cell      =            8
     number of atomic types    =            3
     number of electrons       =        72.00
     number of Kohn-Sham states=           43
     kinetic-energy cutoff     =      34.5455  Ry
     charge density cutoff     =     138.1818  Ry
     convergence threshold     =      1.0E-07
     mixing beta               =       0.7000
     number of iterations used =            8  plain     mixing
     Exchange-correlation      =  SLA  PW   PBX  PBC ( 1  4  3  4 0 0)
     nstep                     =           50


     celldm(1)=   1.889726  celldm(2)=   0.000000  celldm(3)=   0.000000
     celldm(4)=   0.000000  celldm(5)=   0.000000  celldm(6)=   0.000000

     crystal axes: (cart. coord. in units of alat)
               a(1) = (   6.376595   0.000000   0.000000 )  
               a(2) = (   0.000000   6.376595   0.000000 )  
               a(3) = (   0.000000   0.000000   6.376595 )  

     reciprocal axes: (cart. coord. in units 2 pi/alat)
               b(1) = (  0.156824  0.000000  0.000000 )  
               b(2) = (  0.000000  0.156824  0.000000 )  
               b(3) = (  0.000000  0.000000  0.156824 )  


     PseudoPot. # 1 for In read from file:
     /home/cbuurma/espresso/pseudo/In.pbe-dn-kjpaw_psl.0.2.2.UPF
     MD5 check sum: f65c3055e4a54d9df9e018248057111d
     Pseudo is Projector augmented-wave + core cor, Zval = 13.0
     Generated using "atomic" code by A. Dal Corso  v.5.0.2 svn rev. 9415
     Shape of augmentation charge: BESSEL
     Using radial grid of 1241 points,  6 beta functions with: 
                l(1) =   0
                l(2) =   0
                l(3) =   1
                l(4) =   1
                l(5) =   2
                l(6) =   2
     Q(r) pseudized with 0 coefficients 


     PseudoPot. # 2 for As read from file:
     /home/cbuurma/espresso/pseudo/As.pbe-n-kjpaw_psl.0.2.UPF
     MD5 check sum: 92d01df2a4d18767ffee083d23ecaa3e
     Pseudo is Projector augmented-wave + core cor, Zval =  5.0
     Generated using "atomic" code by A. Dal Corso  v.5.0.2 svn rev. 9415
     Shape of augmentation charge: PSQ
     Using radial grid of 1209 points,  4 beta functions with: 
                l(1) =   0
                l(2) =   0
                l(3) =   1
                l(4) =   1
     Q(r) pseudized with 0 coefficients 


     PseudoPot. # 3 for Sb read from file:
     /home/cbuurma/espresso/pseudo/Sb.pbe-n-kjpaw_psl.0.3.1.UPF
     MD5 check sum: c5cb7030f02f4d8b0fbdef54c2fc837a
     Pseudo is Projector augmented-wave + core cor, Zval =  5.0
     Generated using "atomic" code by A. Dal Corso  v.5.0.99 svn rev. 10869
     Shape of augmentation charge: PSQ
     Using radial grid of 1243 points,  6 beta functions with: 
                l(1) =   0
                l(2) =   0
                l(3) =   1
                l(4) =   1
                l(5) =   2
                l(6) =   2
     Q(r) pseudized with 0 coefficients 


     atomic species   valence    mass     pseudopotential
        In            13.00   114.81800     In( 1.00)
        As             5.00    74.92200     As( 1.00)
        Sb             5.00   121.67000     Sb( 1.00)

      8 Sym. Ops. (no inversion) found



   Cartesian axes

     site n.     atom                  positions (alat units)
         1           In  tau(   1) = (   4.7820794   1.5945154   1.5945154  )
         2           In  tau(   2) = (   4.7820794   4.7820794   4.7820794  )
         3           In  tau(   3) = (   1.5945154   1.5945154   4.7820794  )
         4           In  tau(   4) = (   1.5945154   4.7820794   1.5945154  )
         5           As  tau(   5) = (   0.0000000   0.0000000   0.0000000  )
         6           Sb  tau(   6) = (   0.0000000   3.1882974   3.1882974  )
         7           As  tau(   7) = (   3.1882974   0.0000000   3.1882974  )
         8           Sb  tau(   8) = (   3.1882974   3.1882974   0.0000000  )

     number of k points=    75  gaussian smearing, width (Ry)=  0.0010
                       cart. coord. in units 2pi/alat
        k(    1) = (   0.0000000   0.0000000   0.0000000), wk =   0.0039063
        k(    2) = (   0.0000000   0.0000000   0.0196029), wk =   0.0156250
        k(    3) = (   0.0000000   0.0000000   0.0392059), wk =   0.0156250
        k(    4) = (   0.0000000   0.0000000   0.0588088), wk =   0.0156250
        k(    5) = (   0.0000000   0.0000000  -0.0784118), wk =   0.0078125
        k(    6) = (   0.0000000   0.0196029   0.0196029), wk =   0.0312500
        k(    7) = (   0.0000000   0.0196029   0.0392059), wk =   0.0312500
        k(    8) = (   0.0000000   0.0196029   0.0588088), wk =   0.0312500
        k(    9) = (   0.0000000   0.0196029  -0.0784118), wk =   0.0156250
        k(   10) = (   0.0000000   0.0392059   0.0392059), wk =   0.0312500
        k(   11) = (   0.0000000   0.0392059   0.0588088), wk =   0.0312500
        k(   12) = (   0.0000000   0.0392059  -0.0784118), wk =   0.0156250
        k(   13) = (   0.0000000   0.0588088   0.0588088), wk =   0.0312500
        k(   14) = (   0.0000000   0.0588088  -0.0784118), wk =   0.0156250
        k(   15) = (   0.0000000  -0.0784118  -0.0784118), wk =   0.0078125
        k(   16) = (   0.0196029   0.0196029   0.0196029), wk =   0.0312500
        k(   17) = (   0.0196029   0.0196029   0.0392059), wk =   0.0625000
        k(   18) = (   0.0196029   0.0196029   0.0588088), wk =   0.0625000
        k(   19) = (   0.0196029   0.0196029  -0.0784118), wk =   0.0312500
        k(   20) = (   0.0196029   0.0392059   0.0392059), wk =   0.0625000
        k(   21) = (   0.0196029   0.0392059   0.0588088), wk =   0.0625000
        k(   22) = (   0.0196029   0.0392059  -0.0784118), wk =   0.0312500
        k(   23) = (   0.0196029   0.0588088   0.0588088), wk =   0.0625000
        k(   24) = (   0.0196029   0.0588088  -0.0784118), wk =   0.0312500
        k(   25) = (   0.0196029  -0.0784118  -0.0784118), wk =   0.0156250
        k(   26) = (   0.0392059   0.0392059   0.0392059), wk =   0.0312500
        k(   27) = (   0.0392059   0.0392059   0.0588088), wk =   0.0625000
        k(   28) = (   0.0392059   0.0392059  -0.0784118), wk =   0.0312500
        k(   29) = (   0.0392059   0.0588088   0.0588088), wk =   0.0625000
        k(   30) = (   0.0392059   0.0588088  -0.0784118), wk =   0.0312500
        k(   31) = (   0.0392059  -0.0784118  -0.0784118), wk =   0.0156250
        k(   32) = (   0.0588088   0.0588088   0.0588088), wk =   0.0312500
        k(   33) = (   0.0588088   0.0588088  -0.0784118), wk =   0.0312500
        k(   34) = (   0.0588088  -0.0784118  -0.0784118), wk =   0.0156250
        k(   35) = (  -0.0784118  -0.0784118  -0.0784118), wk =   0.0039063
        k(   36) = (   0.0000000   0.0196029   0.0000000), wk =   0.0078125
        k(   37) = (   0.0000000   0.0392059   0.0000000), wk =   0.0078125
        k(   38) = (   0.0000000   0.0588088   0.0000000), wk =   0.0078125
        k(   39) = (   0.0000000  -0.0784118   0.0000000), wk =   0.0039063
        k(   40) = (   0.0196029   0.0000000   0.0196029), wk =   0.0156250
        k(   41) = (   0.0000000   0.0392059   0.0196029), wk =   0.0312500
        k(   42) = (   0.0392059   0.0000000   0.0196029), wk =   0.0312500
        k(   43) = (   0.0000000   0.0588088   0.0196029), wk =   0.0312500
        k(   44) = (   0.0588088   0.0000000   0.0196029), wk =   0.0312500
        k(   45) = (   0.0000000  -0.0784118   0.0196029), wk =   0.0156250
        k(   46) = (  -0.0784118   0.0000000   0.0196029), wk =   0.0156250
        k(   47) = (   0.0392059   0.0000000   0.0392059), wk =   0.0156250
        k(   48) = (   0.0000000   0.0588088   0.0392059), wk =   0.0312500
        k(   49) = (   0.0588088   0.0000000   0.0392059), wk =   0.0312500
        k(   50) = (   0.0000000  -0.0784118   0.0392059), wk =   0.0156250
        k(   51) = (  -0.0784118   0.0000000   0.0392059), wk =   0.0156250
        k(   52) = (   0.0588088   0.0000000   0.0588088), wk =   0.0156250
        k(   53) = (   0.0000000  -0.0784118   0.0588088), wk =   0.0156250
        k(   54) = (  -0.0784118   0.0000000   0.0588088), wk =   0.0156250
        k(   55) = (  -0.0784118   0.0000000  -0.0784118), wk =   0.0039063
        k(   56) = (  -0.0196029   0.0392059   0.0196029), wk =   0.0312500
        k(   57) = (  -0.0196029   0.0588088   0.0196029), wk =   0.0312500
        k(   58) = (  -0.0196029  -0.0784118   0.0196029), wk =   0.0156250
        k(   59) = (   0.0392059   0.0196029   0.0392059), wk =   0.0312500
        k(   60) = (  -0.0196029   0.0588088   0.0392059), wk =   0.0625000
        k(   61) = (   0.0588088   0.0196029   0.0392059), wk =   0.0625000
        k(   62) = (  -0.0196029  -0.0784118   0.0392059), wk =   0.0312500
        k(   63) = (  -0.0784118   0.0196029   0.0392059), wk =   0.0312500
        k(   64) = (   0.0588088   0.0196029   0.0588088), wk =   0.0312500
        k(   65) = (  -0.0196029  -0.0784118   0.0588088), wk =   0.0312500
        k(   66) = (  -0.0784118   0.0196029   0.0588088), wk =   0.0312500
        k(   67) = (  -0.0784118   0.0196029  -0.0784118), wk =   0.0078125
        k(   68) = (  -0.0392059   0.0588088   0.0392059), wk =   0.0312500
        k(   69) = (  -0.0392059  -0.0784118   0.0392059), wk =   0.0156250
        k(   70) = (   0.0588088   0.0392059   0.0588088), wk =   0.0312500
        k(   71) = (  -0.0392059  -0.0784118   0.0588088), wk =   0.0312500
        k(   72) = (  -0.0784118   0.0392059   0.0588088), wk =   0.0312500
        k(   73) = (  -0.0784118   0.0392059  -0.0784118), wk =   0.0078125
        k(   74) = (  -0.0588088  -0.0784118   0.0588088), wk =   0.0156250
        k(   75) = (  -0.0784118   0.0588088  -0.0784118), wk =   0.0078125

     Dense  grid:    47937 G-vectors     FFT dimensions: (  45,  45,  45)

     Largest allocated arrays     est. size (Mb)     dimensions
        Kohn-Sham Wavefunctions         0.26 Mb     (     390,   43)
        NL pseudopotentials             0.74 Mb     (     390,  124)
        Each V/rho on FFT grid          0.09 Mb     (    6075)
        Each G-vector array             0.02 Mb     (    2998)
        G-vector shells                 0.02 Mb     (    2998)
     Largest temporary arrays     est. size (Mb)     dimensions
        Auxiliary wavefunctions         1.02 Mb     (     390,  172)
        Each subspace H/S matrix        0.11 Mb     (      86,   86)
        Each <psi_i|beta_j> matrix      0.08 Mb     (     124,   43)
        Arrays for rho mixing           0.74 Mb     (    6075,    8)

     Check: negative/imaginary core charge=   -0.000012    0.000000

     Initial potential from superposition of free atoms

     starting charge   71.98340, renormalised to   72.00000
     Starting wfc are   52 randomized atomic wfcs
     Checking if some PAW data can be deallocated... 

     total cpu time spent up to now is        9.3 secs

     Self-consistent Calculation

     iteration #  1     ecut=    34.55 Ry     beta=0.70
     Davidson diagonalization with overlap
     ethr =  1.00E-02,  avg # of iterations =  3.0

     Threshold (ethr) on eigenvalues was too large:
     Diagonalizing with lowered threshold

     Davidson diagonalization with overlap
     ethr =  3.00E-04,  avg # of iterations =  4.3

     total cpu time spent up to now is       40.3 secs

     total energy              =   -2690.38633097 Ry
     Harris-Foulkes estimate   =   -2690.50709414 Ry
     estimated scf accuracy    <       0.22191761 Ry

     iteration #  2     ecut=    34.55 Ry     beta=0.70
     Davidson diagonalization with overlap
     ethr =  3.08E-04,  avg # of iterations =  3.3

     total cpu time spent up to now is       56.2 secs

     total energy              =   -2690.41874086 Ry
     Harris-Foulkes estimate   =   -2690.48861465 Ry
     estimated scf accuracy    <       0.11933902 Ry

     iteration #  3     ecut=    34.55 Ry     beta=0.70
     Davidson diagonalization with overlap
     ethr =  1.66E-04,  avg # of iterations =  2.7

     total cpu time spent up to now is       70.7 secs

     total energy              =   -2690.44978647 Ry
     Harris-Foulkes estimate   =   -2690.45772906 Ry
     estimated scf accuracy    <       0.01608619 Ry

     iteration #  4     ecut=    34.55 Ry     beta=0.70
     Davidson diagonalization with overlap
     ethr =  2.23E-05,  avg # of iterations =  3.6

     total cpu time spent up to now is       91.1 secs

     total energy              =   -2690.45375068 Ry
     Harris-Foulkes estimate   =   -2690.45439491 Ry
     estimated scf accuracy    <       0.00163652 Ry

     iteration #  5     ecut=    34.55 Ry     beta=0.70
     Davidson diagonalization with overlap
     ethr =  2.27E-06,  avg # of iterations =  3.7

     total cpu time spent up to now is      115.0 secs

     total energy              =   -2690.45406106 Ry
     Harris-Foulkes estimate   =   -2690.45405698 Ry
     estimated scf accuracy    <       0.00000561 Ry

     iteration #  6     ecut=    34.55 Ry     beta=0.70
     Davidson diagonalization with overlap
     ethr =  7.79E-09,  avg # of iterations =  4.4

     total cpu time spent up to now is      142.1 secs

     total energy              =   -2690.45407488 Ry
     Harris-Foulkes estimate   =   -2690.45407550 Ry
     estimated scf accuracy    <       0.00000109 Ry

     iteration #  7     ecut=    34.55 Ry     beta=0.70
     Davidson diagonalization with overlap
     ethr =  1.51E-09,  avg # of iterations =  3.0

     total cpu time spent up to now is      161.0 secs

     total energy              =   -2690.45407534 Ry
     Harris-Foulkes estimate   =   -2690.45407533 Ry
     estimated scf accuracy    <       0.00000012 Ry

     iteration #  8     ecut=    34.55 Ry     beta=0.70
     Davidson diagonalization with overlap
     ethr =  1.61E-10,  avg # of iterations =  3.0

     total cpu time spent up to now is      176.0 secs

     End of self-consistent calculation

          k = 0.0000 0.0000 0.0000 (  6031 PWs)   bands (ev):

    -8.6233  -8.5933  -8.5610  -8.5055  -8.5055  -8.5004  -8.4700  -8.4506
    -8.4506  -8.4341  -8.4341  -8.4291  -8.4291  -8.4243  -8.4209  -8.4081
    -8.4075  -8.3964  -8.3927  -8.3927  -5.1226  -3.8100  -3.2934  -2.7933
     0.2107   0.2107   0.2198   3.7249   3.7738   3.7738   3.7780   3.7780
     3.8205   5.4145   5.8819   5.8978   5.8978   7.1215   7.4711   7.5532
     7.5532   7.5649   7.7148

          k = 0.0000 0.0000 0.0196 (  6007 PWs)   bands (ev):

    -8.6204  -8.5918  -8.5588  -8.5089  -8.5042  -8.4985  -8.4713  -8.4525
    -8.4523  -8.4372  -8.4344  -8.4281  -8.4280  -8.4227  -8.4215  -8.4086
    -8.4070  -8.3971  -8.3934  -8.3933  -5.0791  -3.8525  -3.2855  -2.8657
     0.2262   0.2347   0.3888   3.6603   3.6773   3.6938   3.6988   3.8306
     3.8423   4.7511   5.7379   5.7499   6.5332   7.2194   7.6190   7.7157
     7.7701   7.7867   7.8874

          k = 0.0000 0.0000 0.0392 (  5995 PWs)   bands (ev):

    -8.6122  -8.5881  -8.5527  -8.5177  -8.5004  -8.4932  -8.4750  -8.4578
    -8.4572  -8.4452  -8.4343  -8.4270  -8.4256  -8.4216  -8.4193  -8.4106
    -8.4054  -8.3992  -8.3958  -8.3951  -4.9519  -3.9912  -3.2637  -3.0081
     0.2654   0.2720   0.8559   3.4584   3.4649   3.5166   3.5282   3.9044
     3.9868   3.9902   5.3906   5.3974   7.2907   7.3590   7.9195   8.3348
     8.3372   8.3588   8.3665

          k = 0.0000 0.0000 0.0588 (  5990 PWs)   bands (ev):

    -8.6008  -8.5861  -8.5449  -8.5283  -8.4944  -8.4850  -8.4807  -8.4659
    -8.4617  -8.4547  -8.4335  -8.4290  -8.4219  -8.4183  -8.4157  -8.4136
    -8.4032  -8.4020  -8.3994  -8.3976  -4.7507  -4.2229  -3.2312  -3.1202
     0.3076   0.3112   1.4996   3.0405   3.2703   3.2729   3.3795   3.3900
     4.2408   4.2419   4.9759   4.9794   7.5356   7.8650   8.2395   8.3137
     9.0553   9.0811   9.1656

          k = 0.0000 0.0000-0.0784 (  5942 PWs)   bands (ev):

    -8.5904  -8.5903  -8.5374  -8.5370  -8.4874  -8.4874  -8.4754  -8.4754
    -8.4612  -8.4612  -8.4315  -8.4315  -8.4176  -8.4176  -8.4148  -8.4148
    -8.4022  -8.4022  -8.4005  -8.4004  -4.4972  -4.4937  -3.1878  -3.1869
     0.3271   0.3271   2.2432   2.2436   3.1973   3.1974   3.3236   3.3252
     4.5769   4.5780   4.5799   4.5809   7.7843   7.7864   8.3570   8.3577
     9.5046   9.5049  10.0327

          k = 0.0000 0.0196 0.0196 (  5996 PWs)   bands (ev):

    -8.6186  -8.5886  -8.5568  -8.5098  -8.5034  -8.4999  -8.4735  -8.4528
    -8.4527  -8.4384  -8.4356  -8.4272  -8.4268  -8.4235  -8.4223  -8.4083
    -8.4074  -8.3974  -8.3941  -8.3939  -5.0375  -3.8480  -3.3881  -2.8595
     0.2413   0.3895   0.3925   3.4062   3.7101   3.7109   3.7738   3.7758
     3.8693   4.3388   5.5968   5.8361   6.6876   7.3561   7.6793   7.7340
     7.9098   7.9309   8.2975

          k = 0.0000 0.0196 0.0392 (  5992 PWs)   bands (ev):

    -8.6106  -8.5854  -8.5511  -8.5186  -8.5001  -8.4937  -8.4771  -8.4581
    -8.4574  -8.4463  -8.4358  -8.4280  -8.4244  -8.4216  -8.4189  -8.4101
    -8.4058  -8.3994  -8.3964  -8.3955  -4.9126  -3.9820  -3.3528  -3.0086
     0.2826   0.3967   0.8307   3.1567   3.4475   3.5942   3.6989   3.8190
     3.8890   3.9767   5.2350   5.5690   7.2469   7.5465   7.8959   8.1785
     8.3074   8.4638   8.9429

          k = 0.0000 0.0196 0.0588 (  5992 PWs)   bands (ev):

    -8.5996  -8.5841  -8.5437  -8.5286  -8.4949  -8.4855  -8.4824  -8.4661
    -8.4619  -8.4555  -8.4351  -8.4307  -8.4209  -8.4175  -8.4153  -8.4128
    -8.4037  -8.4019  -8.3998  -8.3978  -4.7158  -4.2042  -3.2996  -3.1392
     0.3336   0.3957   1.4325   2.8585   3.0183   3.1918   3.6115   3.7384
     4.0931   4.2807   4.8141   5.1241   7.7746   7.8418   8.3059   8.5163
     8.5696   9.0554   9.2995

          k = 0.0000 0.0196-0.0784 (  6004 PWs)   bands (ev):

    -8.5892  -8.5891  -8.5369  -8.5364  -8.4887  -8.4887  -8.4758  -8.4758
    -8.4618  -8.4618  -8.4334  -8.4333  -8.4170  -8.4170  -8.4141  -8.4141
    -8.4029  -8.4028  -8.4005  -8.4005  -4.4692  -4.4656  -3.2315  -3.2306
     0.3751   0.3752   2.1227   2.1230   3.0307   3.0318   3.6347   3.6351
     4.4180   4.4200   4.6726   4.6743   8.0011   8.0033   8.3992   8.3999
     9.1990   9.1992  10.1545

          k = 0.0000 0.0392 0.0392 (  5976 PWs)   bands (ev):

    -8.6067  -8.5777  -8.5469  -8.5234  -8.4992  -8.4939  -8.4823  -8.4588
    -8.4578  -8.4489  -8.4395  -8.4329  -8.4216  -8.4197  -8.4176  -8.4091
    -8.4063  -8.4000  -8.3980  -8.3968  -4.8009  -3.9591  -3.5748  -3.0105
     0.3322   0.7274   0.7598   2.9350   3.0657   3.5372   3.5427   3.9716
     3.9737   4.1113   4.8644   5.6589   7.3423   7.6826   8.3218   8.3452
     8.6018   8.6260   9.4384

          k = 0.0000 0.0392 0.0588 (  6012 PWs)   bands (ev):

    -8.5963  -8.5786  -8.5409  -8.5304  -8.4959  -8.4867  -8.4860  -8.4669
    -8.4624  -8.4574  -8.4392  -8.4356  -8.4184  -8.4154  -8.4143  -8.4108
    -8.4047  -8.4020  -8.4012  -8.3986  -4.6181  -4.1557  -3.4738  -3.1887
     0.4127   0.6264   1.2572   2.4427   2.8723   3.2129   3.7452   4.0128
     4.1727   4.3860   4.4424   5.3537   7.7491   8.0012   8.3946   8.7502
     8.8581   9.1790   9.4155

          k = 0.0000 0.0392-0.0784 (  6018 PWs)   bands (ev):

    -8.5856  -8.5855  -8.5358  -8.5353  -8.4915  -8.4915  -8.4765  -8.4765
    -8.4628  -8.4627  -8.4379  -8.4378  -8.4152  -8.4152  -8.4119  -8.4119
    -8.4040  -8.4040  -8.4009  -8.4009  -4.3930  -4.3892  -3.3446  -3.3439
     0.5148   0.5151   1.8297   1.8298   2.9726   2.9740   4.0353   4.0368
     4.1198   4.1200   4.8708   4.8721   8.2095   8.2099   8.5397   8.5401
     8.9764   8.9769  10.3275

          k = 0.0000 0.0588 0.0588 (  6020 PWs)   bands (ev):

    -8.5926  -8.5715  -8.5379  -8.5347  -8.4960  -8.4908  -8.4859  -8.4676
    -8.4626  -8.4593  -8.4438  -8.4413  -8.4152  -8.4129  -8.4124  -8.4090
    -8.4057  -8.4028  -8.4025  -8.4005  -4.4866  -4.1010  -3.6766  -3.2450
     0.5416   0.9499   1.0362   1.9798   2.8892   3.3687   3.3843   4.0244
     4.4731   4.5100   4.5221   5.3423   7.7994   7.9297   8.5618   8.5645
     9.4972   9.5067  10.0191

          k = 0.0000 0.0588-0.0784 (  6012 PWs)   bands (ev):

    -8.5813  -8.5813  -8.5353  -8.5348  -8.4937  -8.4937  -8.4770  -8.4769
    -8.4636  -8.4636  -8.4430  -8.4430  -8.4125  -8.4125  -8.4093  -8.4093
    -8.4053  -8.4053  -8.4023  -8.4023  -4.2979  -4.2938  -3.4758  -3.4753
     0.7279   0.7286   1.4850   1.4854   3.0663   3.0679   3.6576   3.6595
     4.5790   4.5798   5.0071   5.0080   8.0291   8.0304   8.2963   8.2980
     9.7548   9.7558  10.3760

          k = 0.0000-0.0784-0.0784 (  6024 PWs)   bands (ev):

    -8.5793  -8.5793  -8.5355  -8.5350  -8.4943  -8.4943  -8.4771  -8.4770
    -8.4640  -8.4639  -8.4454  -8.4454  -8.4107  -8.4107  -8.4089  -8.4089
    -8.4049  -8.4049  -8.4040  -8.4039  -4.2489  -4.2445  -3.5394  -3.5393
     0.8996   0.9013   1.2628   1.2642   3.2372   3.2392   3.3805   3.3822
     4.9044   4.9080   4.9387   4.9406   7.8946   7.8963   8.1895   8.1915
    10.3996  10.4006  10.5449

          k = 0.0196 0.0196 0.0196 (  5983 PWs)   bands (ev):

    -8.6158  -8.5872  -8.5548  -8.5119  -8.5033  -8.4980  -8.4748  -8.4565
    -8.4525  -8.4403  -8.4365  -8.4275  -8.4254  -8.4235  -8.4212  -8.4083
    -8.4072  -8.3980  -8.3956  -8.3936  -4.9956  -3.8809  -3.3788  -2.9287
     0.3397   0.3922   0.4498   3.4451   3.4728   3.5125   3.8967   3.9118
     3.9324   4.0007   5.7057   5.7156   6.7147   7.3857   7.6297   7.7425
     8.1837   8.3303   8.4466

          k = 0.0196 0.0196 0.0392 (  5990 PWs)   bands (ev):

    -8.6082  -8.5842  -8.5494  -8.5192  -8.5007  -8.4933  -8.4783  -8.4631
    -8.4555  -8.4469  -8.4370  -8.4290  -8.4230  -8.4213  -8.4184  -8.4097
    -8.4057  -8.3999  -8.3981  -8.3946  -4.8734  -3.9930  -3.3532  -3.0717
     0.3795   0.3978   0.8186   3.1901   3.2354   3.3999   3.6841   3.9170
     3.9203   4.0671   5.3923   5.4745   7.1173   7.5820   7.9351   7.9663
     8.4404   8.9738   9.0521

          k = 0.0196 0.0196 0.0588 (  6004 PWs)   bands (ev):

    -8.5978  -8.5830  -8.5427  -8.5285  -8.4957  -8.4864  -8.4835  -8.4708
    -8.4595  -8.4552  -8.4364  -8.4319  -8.4199  -8.4171  -8.4154  -8.4121
    -8.4037  -8.4020  -8.4013  -8.3968  -4.6815  -4.1931  -3.3156  -3.1915
     0.3926   0.4013   1.3625   2.6430   3.0840   3.1059   3.8314   3.8373
     4.0258   4.3088   4.9729   5.0066   7.6758   7.8183   8.4762   8.5627
     8.6572   8.8077   9.7689

          k = 0.0196 0.0196-0.0784 (  6008 PWs)   bands (ev):

    -8.5879  -8.5878  -8.5363  -8.5359  -8.4896  -8.4896  -8.4785  -8.4785
    -8.4604  -8.4603  -8.4346  -8.4346  -8.4164  -8.4164  -8.4137  -8.4137
    -8.4037  -8.4037  -8.3998  -8.3998  -4.4435  -4.4398  -3.2663  -3.2656
     0.3994   0.3999   1.9860   1.9863   3.0385   3.0400   3.7927   3.7928
     4.4601   4.4624   4.6290   4.6320   7.9532   7.9547   8.6286   8.6295
     9.0670   9.0671   9.8972

          k = 0.0196 0.0392 0.0392 (  5993 PWs)   bands (ev):

    -8.6046  -8.5770  -8.5456  -8.5243  -8.4996  -8.4933  -8.4834  -8.4637
    -8.4561  -8.4499  -8.4405  -8.4339  -8.4203  -8.4192  -8.4172  -8.4084
    -8.4063  -8.4003  -8.3995  -8.3958  -4.7648  -3.9740  -3.5623  -3.0622
     0.3857   0.6894   0.7403   2.8137   3.0498   3.4680   3.4754   4.1012
     4.1030   4.1559   5.0879   5.5758   7.0959   7.6699   8.0340   8.0876
     9.0542   9.0799   9.7274

          k = 0.0196 0.0392 0.0588 (  6017 PWs)   bands (ev):

    -8.5949  -8.5780  -8.5401  -8.5305  -8.4966  -8.4878  -8.4867  -8.4714
    -8.4602  -8.4572  -8.4403  -8.4367  -8.4175  -8.4150  -8.4143  -8.4101
    -8.4041  -8.4023  -8.4020  -8.3977  -4.5878  -4.1506  -3.4740  -3.2239
     0.4241   0.5866   1.1708   2.2335   3.0092   3.2652   3.8034   4.1181
     4.2226   4.4109   4.6599   5.2797   7.4700   7.8935   8.2573   8.5599
     9.1022   9.3197   9.6638

          k = 0.0196 0.0392-0.0784 (  6002 PWs)   bands (ev):

    -8.5846  -8.5846  -8.5354  -8.5349  -8.4923  -8.4923  -8.4790  -8.4790
    -8.4614  -8.4613  -8.4390  -8.4390  -8.4146  -8.4145  -8.4116  -8.4116
    -8.4042  -8.4042  -8.4001  -8.4001  -4.3725  -4.3687  -3.3616  -3.3610
     0.4908   0.4916   1.6776   1.6778   3.0938   3.0957   4.1538   4.1547
     4.2344   4.2354   4.8242   4.8259   7.8855   7.8867   8.6179   8.6187
     9.1493   9.1496   9.8928

          k = 0.0196 0.0588 0.0588 (  6008 PWs)   bands (ev):

    -8.5915  -8.5717  -8.5373  -8.5344  -8.4967  -8.4917  -8.4866  -8.4719
    -8.4604  -8.4593  -8.4446  -8.4421  -8.4143  -8.4128  -8.4124  -8.4079
    -8.4048  -8.4036  -8.4027  -8.3989  -4.4635  -4.1037  -3.6597  -3.2613
     0.4973   0.8591   0.9469   1.7851   3.0697   3.5258   3.5283   4.2563
     4.5040   4.5373   4.5501   5.3101   7.4987   7.8481   8.3584   8.3821
     9.4994   9.5271  10.0607

          k = 0.0196 0.0588-0.0784 (  6002 PWs)   bands (ev):

    -8.5809  -8.5809  -8.5350  -8.5345  -8.4945  -8.4945  -8.4795  -8.4795
    -8.4622  -8.4621  -8.4438  -8.4438  -8.4122  -8.4122  -8.4092  -8.4092
    -8.4050  -8.4050  -8.4011  -8.4011  -4.2858  -4.2816  -3.4729  -3.4726
     0.6510   0.6522   1.3327   1.3332   3.2582   3.2602   3.8647   3.8665
     4.6067   4.6074   4.9949   4.9959   7.7534   7.7547   8.2583   8.2596
     9.7253   9.7263  10.0295

          k = 0.0196-0.0784-0.0784 (  6012 PWs)   bands (ev):

    -8.5792  -8.5792  -8.5352  -8.5346  -8.4952  -8.4952  -8.4797  -8.4796
    -8.4625  -8.4624  -8.4461  -8.4460  -8.4108  -8.4108  -8.4085  -8.4085
    -8.4052  -8.4052  -8.4020  -8.4020  -4.2422  -4.2378  -3.5267  -3.5266
     0.7928   0.7947   1.1208   1.1219   3.4850   3.4869   3.5691   3.5706
     4.9122   4.9159   4.9455   4.9474   7.6673   7.6688   8.1185   8.1202
    10.1088  10.1098  10.1635

          k = 0.0392 0.0392 0.0392 (  5983 PWs)   bands (ev):

    -8.5988  -8.5758  -8.5421  -8.5271  -8.4997  -8.4913  -8.4863  -8.4709
    -8.4567  -8.4528  -8.4424  -8.4363  -8.4174  -8.4171  -8.4157  -8.4078
    -8.4048  -8.4016  -8.4013  -8.3955  -4.6607  -4.0296  -3.5274  -3.1847
     0.4795   0.5982   0.7584   2.3225   3.3527   3.4013   3.4202   4.2845
     4.2856   4.2871   5.3545   5.3627   6.7931   7.6561   7.9076   8.0756
     9.4770   9.6293   9.9565

          k = 0.0392 0.0392 0.0588 (  6001 PWs)   bands (ev):

    -8.5905  -8.5769  -8.5379  -8.5309  -8.4980  -8.4903  -8.4882  -8.4783
    -8.4585  -8.4568  -8.4430  -8.4394  -8.4151  -8.4138  -8.4135  -8.4088
    -8.4036  -8.4033  -8.4016  -8.3965  -4.5025  -4.1459  -3.4756  -3.3121
     0.4724   0.5061   0.9850   1.8131   3.3718   3.3801   3.8844   4.3697
     4.3710   4.4944   5.0652   5.0785   7.0345   7.7030   8.1191   8.2284
     9.4417   9.6918   9.8209

          k = 0.0392 0.0392-0.0784 (  6004 PWs)   bands (ev):

    -8.5823  -8.5822  -8.5345  -8.5340  -8.4945  -8.4945  -8.4840  -8.4840
    -8.4592  -8.4591  -8.4418  -8.4418  -8.4133  -8.4133  -8.4105  -8.4105
    -8.4046  -8.4046  -8.3987  -8.3987  -4.3191  -4.3150  -3.4076  -3.4071
     0.4596   0.4610   1.3559   1.3564   3.3780   3.3803   4.3790   4.3797
     4.4887   4.4897   4.7621   4.7649   7.4934   7.4944   8.3657   8.3659
     9.4530   9.4532   9.6947

          k = 0.0392 0.0588 0.0588 (  5983 PWs)   bands (ev):

    -8.5884  -8.5726  -8.5359  -8.5339  -8.4982  -8.4939  -8.4882  -8.4788
    -8.4592  -8.4587  -8.4462  -8.4441  -8.4128  -8.4122  -8.4111  -8.4066
    -8.4044  -8.4029  -8.4017  -8.3970  -4.3997  -4.1171  -3.6123  -3.3086
     0.4208   0.6633   0.7745   1.3991   3.5319   3.8513   3.8541   4.5919
     4.6182   4.6340   4.7535   5.2179   6.9272   7.5322   7.9036   8.1234
     9.5735   9.6102  10.0364

          k = 0.0392 0.0588-0.0784 (  5990 PWs)   bands (ev):

    -8.5800  -8.5800  -8.5343  -8.5338  -8.4965  -8.4965  -8.4846  -8.4845
    -8.4601  -8.4600  -8.4458  -8.4457  -8.4116  -8.4115  -8.4084  -8.4084
    -8.4043  -8.4043  -8.3989  -8.3989  -4.2555  -4.2513  -3.4668  -3.4666
     0.4995   0.5014   1.0309   1.0314   3.7118   3.7141   4.3400   4.3415
     4.6872   4.6878   4.9543   4.9555   7.2234   7.2244   7.9606   7.9611
     9.6953   9.6957   9.8541

          k = 0.0392-0.0784-0.0784 (  5972 PWs)   bands (ev):

    -8.5790  -8.5790  -8.5343  -8.5338  -8.4972  -8.4972  -8.4847  -8.4847
    -8.4604  -8.4603  -8.4475  -8.4475  -8.4108  -8.4108  -8.4074  -8.4074
    -8.4042  -8.4042  -8.3990  -8.3990  -4.2257  -4.2213  -3.4953  -3.4952
     0.5660   0.5684   0.8578   0.8584   4.0317   4.0333   4.0558   4.0578
     4.9315   4.9351   4.9619   4.9639   7.1466   7.1479   7.7567   7.7575
     9.8677   9.8678  10.0479

          k = 0.0588 0.0588 0.0588 (  5983 PWs)   bands (ev):

    -8.5839  -8.5750  -8.5343  -8.5333  -8.4991  -8.4965  -8.4894  -8.4850
    -8.4589  -8.4584  -8.4476  -8.4463  -8.4119  -8.4109  -8.4090  -8.4065
    -8.4043  -8.4029  -8.3992  -8.3963  -4.3111  -4.1539  -3.5430  -3.3797
     0.3798   0.4844   0.6808   1.0303   4.1090   4.1372   4.1720   4.7203
     4.7408   4.7680   5.0757   5.0872   6.5417   7.1207   7.5313   7.7775
     9.6574   9.7323   9.8836

          k = 0.0588 0.0588-0.0784 (  6000 PWs)   bands (ev):

    -8.5791  -8.5791  -8.5336  -8.5331  -8.4986  -8.4985  -8.4888  -8.4888
    -8.4587  -8.4586  -8.4478  -8.4478  -8.4110  -8.4110  -8.4072  -8.4072
    -8.4036  -8.4036  -8.3971  -8.3971  -4.2237  -4.2193  -3.4620  -3.4620
     0.3887   0.3911   0.7706   0.7708   4.2353   4.2380   4.7635   4.7648
     4.8151   4.8168   4.9175   4.9194   6.7368   6.7377   7.4663   7.4664
     9.7995   9.8001   9.9081

          k = 0.0588-0.0784-0.0784 (  5980 PWs)   bands (ev):

    -8.5789  -8.5789  -8.5335  -8.5330  -8.4991  -8.4991  -8.4891  -8.4891
    -8.4592  -8.4591  -8.4488  -8.4488  -8.4106  -8.4106  -8.4065  -8.4065
    -8.4030  -8.4030  -8.3968  -8.3968  -4.2090  -4.2046  -3.4625  -3.4625
     0.3678   0.3706   0.6556   0.6557   4.6009   4.6026   4.6760   4.6785
     4.9541   4.9575   4.9800   4.9820   6.5382   6.5392   7.1981   7.1983
     9.9098   9.9100  10.0568

          k =-0.0784-0.0784-0.0784 (  6008 PWs)   bands (ev):

    -8.5788  -8.5788  -8.5332  -8.5327  -8.5000  -8.5000  -8.4908  -8.4908
    -8.4590  -8.4589  -8.4495  -8.4495  -8.4105  -8.4105  -8.4061  -8.4061
    -8.4026  -8.4026  -8.3961  -8.3961  -4.2020  -4.1975  -3.4486  -3.4486
     0.2915   0.2945   0.5826   0.5826   4.9257   4.9257   4.9369   4.9412
     5.0078   5.0078   5.0316   5.0332   6.1810   6.1817   6.8779   6.8779
     9.9739   9.9740   9.9797

          k = 0.0000 0.0196 0.0000 (  6007 PWs)   bands (ev):

    -8.6215  -8.5900  -8.5591  -8.5044  -8.5044  -8.5041  -8.4723  -8.4510
    -8.4510  -8.4353  -8.4353  -8.4278  -8.4278  -8.4237  -8.4233  -8.4080
    -8.4076  -8.3968  -8.3933  -8.3933  -5.0802  -3.8063  -3.4006  -2.7871
     0.2255   0.2255   0.3855   3.6452   3.6823   3.6823   3.7405   3.8273
     3.8273   4.7476   5.7514   5.7514   6.5298   7.3421   7.4375   7.7250
     7.7689   7.7689   7.9452

          k = 0.0000 0.0392 0.0000 (  5995 PWs)   bands (ev):

    -8.6166  -8.5806  -8.5538  -8.5148  -8.5015  -8.5015  -8.4780  -8.4517
    -8.4517  -8.4387  -8.4387  -8.4295  -8.4247  -8.4247  -8.4222  -8.4099
    -8.4064  -8.3980  -8.3952  -8.3952  -4.9582  -3.7972  -3.6627  -2.7721
     0.2628   0.2628   0.8215   3.4712   3.4727   3.4727   3.5697   3.9129
     3.9847   3.9847   5.3997   5.3997   7.2037   7.5786   7.9336   8.0097
     8.3298   8.3299   8.7192

          k = 0.0000 0.0588 0.0000 (  5990 PWs)   bands (ev):

    -8.6113  -8.5661  -8.5479  -8.5304  -8.4981  -8.4981  -8.4842  -8.4524
    -8.4524  -8.4424  -8.4424  -8.4363  -8.4213  -8.4213  -8.4196  -8.4125
    -8.4046  -8.3998  -8.3977  -8.3977  -4.7810  -3.9624  -3.7881  -2.7570
     0.3023   0.3023   1.4054   3.1245   3.2838   3.2838   3.3170   3.4219
     4.2397   4.2397   4.9809   4.9809   7.4997   7.9311   8.2998   8.4408
     8.7718   9.0427   9.0427

          k = 0.0000-0.0784 0.0000 (  5942 PWs)   bands (ev):

    -8.6088  -8.5498  -8.5473  -8.5452  -8.4966  -8.4966  -8.4868  -8.4525
    -8.4525  -8.4441  -8.4441  -8.4392  -8.4195  -8.4195  -8.4168  -8.4154
    -8.4029  -8.4015  -8.3987  -8.3987  -4.6612  -4.1290  -3.7842  -2.7505
     0.3195   0.3195   1.8392   2.6284   3.2101   3.2101   3.2576   3.3658
     4.5683   4.5683   4.5910   4.5910   7.7002   7.8338   8.4362   8.5006
     9.4735   9.4735   9.6068

          k = 0.0196 0.0000 0.0196 (  5996 PWs)   bands (ev):

    -8.6175  -8.5902  -8.5566  -8.5104  -8.5042  -8.4972  -8.4726  -8.4563
    -8.4522  -8.4390  -8.4352  -8.4278  -8.4266  -8.4221  -8.4217  -8.4088
    -8.4068  -8.3978  -8.3951  -8.3931  -5.0364  -3.8855  -3.2813  -2.9362
     0.2497   0.3364   0.4479   3.4063   3.6815   3.7211   3.7568   3.8175
     3.8606   4.3375   5.5899   5.8444   6.6872   7.3750   7.5939   7.7697
     7.8423   8.0506   8.2731

          k = 0.0000 0.0392 0.0196 (  5992 PWs)   bands (ev):

    -8.6140  -8.5796  -8.5519  -8.5171  -8.5010  -8.4994  -8.4792  -8.4536
    -8.4534  -8.4416  -8.4391  -8.4306  -8.4238  -8.4232  -8.4208  -8.4094
    -8.4067  -8.3984  -8.3959  -8.3956  -4.9180  -3.8370  -3.6401  -2.8445
     0.2806   0.3993   0.7969   3.1545   3.4555   3.6312   3.6730   3.8473
     3.8595   3.9770   5.2373   5.5706   7.2326   7.7378   7.7486   8.1803
     8.2786   8.4281   8.9393

          k = 0.0392 0.0000 0.0196 (  5992 PWs)   bands (ev):

    -8.6097  -8.5867  -8.5510  -8.5179  -8.5010  -8.4928  -8.4762  -8.4629
    -8.4552  -8.4457  -8.4356  -8.4277  -8.4240  -8.4216  -8.4188  -8.4103
    -8.4054  -8.3998  -8.3977  -8.3942  -4.9116  -4.0008  -3.2700  -3.0758
     0.2885   0.3786   0.8481   3.1431   3.4509   3.6315   3.6646   3.8518
     3.8558   3.9819   5.2342   5.5734   7.2434   7.5922   7.9060   8.0721
     8.3228   8.4936   8.8511

          k = 0.0000 0.0588 0.0196 (  5992 PWs)   bands (ev):

    -8.6091  -8.5658  -8.5464  -8.5314  -8.4980  -8.4969  -8.4852  -8.4543
    -8.4540  -8.4451  -8.4428  -8.4371  -8.4203  -8.4201  -8.4183  -8.4118
    -8.4048  -8.4001  -8.3983  -8.3980  -4.7457  -3.9291  -3.8260  -2.8293
     0.3281   0.3989   1.3409   2.9260   3.0111   3.2030   3.6083   3.7435
     4.0872   4.2798   4.8153   5.1252   7.7050   7.9911   8.3918   8.3989
     8.6225   9.0103   9.1747

          k = 0.0588 0.0000 0.0196 (  5992 PWs)   bands (ev):

    -8.5989  -8.5848  -8.5437  -8.5281  -8.4953  -8.4861  -8.4817  -8.4706
    -8.4592  -8.4543  -8.4348  -8.4300  -8.4208  -8.4179  -8.4157  -8.4128
    -8.4034  -8.4021  -8.4010  -8.3966  -4.7150  -4.2096  -3.2540  -3.1793
     0.3354   0.3856   1.4391   2.8122   3.0721   3.1969   3.6038   3.7392
     4.0899   4.2814   4.8150   5.1241   7.7839   7.8289   8.3474   8.4875
     8.6067   9.0362   9.2296

          k = 0.0000-0.0784 0.0196 (  6004 PWs)   bands (ev):

    -8.6069  -8.5518  -8.5459  -8.5440  -8.4966  -8.4956  -8.4879  -8.4546
    -8.4542  -8.4467  -8.4446  -8.4401  -8.4187  -8.4186  -8.4158  -8.4143
    -8.4031  -8.4018  -8.3994  -8.3993  -4.6311  -4.0883  -3.8214  -2.8230
     0.3562   0.3906   1.7419   2.4751   2.9898   3.0779   3.6249   3.6459
     4.4115   4.4231   4.6530   4.6943   7.9816   7.9924   8.4274   8.6188
     9.0732   9.1549   9.8236

          k =-0.0784 0.0000 0.0196 (  6004 PWs)   bands (ev):

    -8.5891  -8.5890  -8.5368  -8.5363  -8.4884  -8.4884  -8.4783  -8.4783
    -8.4599  -8.4599  -8.4329  -8.4329  -8.4170  -8.4170  -8.4146  -8.4146
    -8.4036  -8.4036  -8.3997  -8.3997  -4.4697  -4.4661  -3.2300  -3.2292
     0.3714   0.3715   2.1178   2.1181   3.0446   3.0458   3.6309   3.6312
     4.4181   4.4200   4.6716   4.6734   7.9996   8.0017   8.4007   8.4013
     9.2321   9.2322  10.1311

          k = 0.0392 0.0000 0.0392 (  5976 PWs)   bands (ev):

    -8.6028  -8.5835  -8.5464  -8.5211  -8.5010  -8.4909  -8.4795  -8.4704
    -8.4558  -8.4482  -8.4380  -8.4298  -8.4208  -8.4207  -8.4171  -8.4102
    -8.4043  -8.4016  -8.4004  -8.3944  -4.7945  -4.0507  -3.2889  -3.2177
     0.3360   0.5909   0.9122   2.8644   3.1266   3.5404   3.5450   3.9275
     4.0137   4.1090   4.8648   5.6682   7.3253   7.8101   8.0991   8.4438
     8.4630   8.7740   9.3372

          k = 0.0000 0.0588 0.0392 (  6012 PWs)   bands (ev):

    -8.6025  -8.5666  -8.5425  -8.5336  -8.4974  -8.4929  -8.4878  -8.4596
    -8.4582  -8.4519  -8.4436  -8.4390  -8.4182  -8.4170  -8.4154  -8.4101
    -8.4053  -8.4012  -8.4000  -8.3989  -4.6435  -3.9354  -3.8315  -3.0132
     0.4071   0.6609   1.1713   2.4853   2.8665   3.2270   3.7414   4.0146
     4.1724   4.3783   4.4458   5.3516   7.7648   8.0174   8.4300   8.7061
     8.8853   9.2163   9.3205

          k = 0.0588 0.0000 0.0392 (  6012 PWs)   bands (ev):

    -8.5934  -8.5817  -8.5407  -8.5283  -8.4973  -8.4876  -8.4848  -8.4778
    -8.4576  -8.4535  -8.4383  -8.4331  -8.4184  -8.4166  -8.4152  -8.4115
    -8.4044  -8.4034  -8.4019  -8.3961  -4.6131  -4.1846  -3.3189  -3.3170
     0.4093   0.5882   1.2951   2.4001   2.9147   3.2245   3.7487   4.0099
     4.1708   4.3852   4.4423   5.3582   7.7146   8.1634   8.3443   8.6194
     8.9774   9.1312   9.3831

          k = 0.0000-0.0784 0.0392 (  6018 PWs)   bands (ev):

    -8.6006  -8.5580  -8.5422  -8.5405  -8.4964  -8.4922  -8.4900  -8.4599
    -8.4582  -8.4532  -8.4455  -8.4418  -8.4163  -8.4159  -8.4135  -8.4119
    -8.4037  -8.4026  -8.4006  -8.4005  -4.5442  -3.9693  -3.9253  -3.0146
     0.4670   0.5902   1.4982   2.1142   2.9140   3.0417   4.0154   4.0866
     4.0935   4.1120   4.8441   4.8942   8.1994   8.2976   8.5027   8.7062
     8.7216   9.0804  10.0579

          k =-0.0784 0.0000 0.0392 (  6018 PWs)   bands (ev):

    -8.5850  -8.5849  -8.5354  -8.5349  -8.4912  -8.4911  -8.4834  -8.4834
    -8.4575  -8.4574  -8.4364  -8.4363  -8.4157  -8.4157  -8.4132  -8.4132
    -8.4055  -8.4055  -8.3989  -8.3989  -4.3952  -4.3913  -3.3394  -3.3388
     0.5001   0.5002   1.8266   1.8268   2.9929   2.9944   4.0548   4.0569
     4.1008   4.1011   4.8704   4.8719   8.1705   8.1712   8.7502   8.7513
     8.8371   8.8375  10.2656

          k = 0.0588 0.0000 0.0588 (  6020 PWs)   bands (ev):

    -8.5861  -8.5791  -8.5372  -8.5308  -8.4975  -8.4896  -8.4879  -8.4836
    -8.4568  -8.4537  -8.4414  -8.4372  -8.4159  -8.4138  -8.4137  -8.4110
    -8.4063  -8.4059  -8.4007  -8.3970  -4.4620  -4.1973  -3.4439  -3.4015
     0.5335   0.7733   1.2263   1.9356   2.9217   3.3793   3.3867   4.0264
     4.4839   4.5095   4.5119   5.3526   7.7435   8.0855   8.3723   8.8123
     9.2298   9.7299   9.8456

          k = 0.0000-0.0784 0.0588 (  6012 PWs)   bands (ev):

    -8.5909  -8.5676  -8.5377  -8.5365  -8.4957  -8.4924  -8.4857  -8.4678
    -8.4626  -8.4602  -8.4460  -8.4438  -8.4130  -8.4123  -8.4111  -8.4089
    -8.4053  -8.4038  -8.4024  -8.4023  -4.4105  -4.0759  -3.7808  -3.2709
     0.6509   0.8899   1.1957   1.6847   3.0026   3.1490   3.5918   3.7096
     4.5606   4.6020   4.9974   5.0105   8.0454   8.0639   8.2047   8.3624
     9.6385   9.8817  10.2774

          k =-0.0784 0.0000 0.0588 (  6012 PWs)   bands (ev):

    -8.5802  -8.5802  -8.5344  -8.5339  -8.4946  -8.4945  -8.4868  -8.4868
    -8.4554  -8.4553  -8.4407  -8.4407  -8.4138  -8.4138  -8.4113  -8.4113
    -8.4076  -8.4076  -8.3987  -8.3987  -4.3029  -4.2987  -3.4657  -3.4655
     0.6913   0.6914   1.5009   1.5009   3.0885   3.0903   3.6576   3.6595
     4.5806   4.5811   5.0119   5.0132   8.0165   8.0169   8.3905   8.3906
     9.6423   9.6434  10.3107

          k =-0.0784 0.0000-0.0784 (  6024 PWs)   bands (ev):

    -8.5780  -8.5780  -8.5343  -8.5337  -8.4960  -8.4959  -8.4880  -8.4880
    -8.4544  -8.4543  -8.4429  -8.4429  -8.4124  -8.4124  -8.4103  -8.4103
    -8.4092  -8.4092  -8.3988  -8.3988  -4.2559  -4.2514  -3.5267  -3.5267
     0.8281   0.8283   1.3136   1.3136   3.3133   3.3171   3.3254   3.3254
     4.8797   4.8797   4.9765   4.9784   7.9167   7.9171   8.2299   8.2299
    10.3024  10.3044  10.3446

          k =-0.0196 0.0392 0.0196 (  5990 PWs)   bands (ev):

    -8.6115  -8.5786  -8.5501  -8.5191  -8.5010  -8.4978  -8.4803  -8.4572
    -8.4533  -8.4437  -8.4397  -8.4316  -8.4226  -8.4223  -8.4198  -8.4087
    -8.4070  -8.3989  -8.3973  -8.3952  -4.8788  -3.8698  -3.6199  -2.9102
     0.3469   0.4535   0.7678   3.1940   3.2819   3.3541   3.6961   3.9090
     3.9293   4.0633   5.3980   5.4683   7.1224   7.6864   7.7461   8.0447
     8.4856   8.8653   9.1913

          k =-0.0196 0.0588 0.0196 (  6004 PWs)   bands (ev):

    -8.6069  -8.5658  -8.5451  -8.5322  -8.4983  -8.4956  -8.4862  -8.4578
    -8.4539  -8.4475  -8.4433  -8.4378  -8.4193  -8.4191  -8.4176  -8.4109
    -8.4050  -8.4004  -8.3996  -8.3973  -4.7116  -3.8975  -3.8586  -2.8915
     0.3534   0.4555   1.2685   2.7173   3.0316   3.1338   3.8348   3.8450
     4.0204   4.3077   4.9704   5.0102   7.6571   7.9460   8.2902   8.6059
     8.6599   8.9052   9.5460

          k =-0.0196-0.0784 0.0196 (  6008 PWs)   bands (ev):

    -8.6049  -8.5537  -8.5446  -8.5428  -8.4970  -8.4944  -8.4888  -8.4581
    -8.4540  -8.4492  -8.4448  -8.4407  -8.4178  -8.4175  -8.4157  -8.4127
    -8.4033  -8.4020  -8.4009  -8.3984  -4.6024  -4.0491  -3.8540  -2.8836
     0.3558   0.4558   1.6375   2.3048   2.9779   3.0851   3.7929   3.7998
     4.4380   4.4817   4.6168   4.6467   7.8992   8.0859   8.5473   8.8095
     8.8727   9.1520   9.5474

          k = 0.0392 0.0196 0.0392 (  5993 PWs)   bands (ev):

    -8.6016  -8.5816  -8.5451  -8.5225  -8.5007  -8.4912  -8.4816  -8.4705
    -8.4561  -8.4496  -8.4394  -8.4315  -8.4200  -8.4197  -8.4169  -8.4096
    -8.4045  -8.4015  -8.4007  -8.3947  -4.7594  -4.0446  -3.3558  -3.2081
     0.4049   0.5579   0.8666   2.7637   3.1076   3.4447   3.4841   4.0805
     4.1252   4.1537   5.0869   5.5840   7.0873   7.8011   7.8305   8.1695
     8.9110   9.2751   9.5521

          k =-0.0196 0.0588 0.0392 (  6017 PWs)   bands (ev):

    -8.6008  -8.5667  -8.5415  -8.5339  -8.4980  -8.4922  -8.4887  -8.4643
    -8.4565  -8.4532  -8.4442  -8.4398  -8.4171  -8.4163  -8.4154  -8.4086
    -8.4054  -8.4016  -8.4013  -8.3976  -4.6133  -3.9545  -3.8052  -3.0529
     0.4037   0.6462   1.0850   2.2721   2.9979   3.2690   3.8080   4.1200
     4.2222   4.4083   4.6599   5.2784   7.4880   7.9856   8.1392   8.5652
     9.0596   9.4778   9.5489

          k = 0.0588 0.0196 0.0392 (  6017 PWs)   bands (ev):

    -8.5925  -8.5805  -8.5399  -8.5290  -8.4975  -8.4878  -8.4865  -8.4779
    -8.4579  -8.4545  -8.4398  -8.4349  -8.4175  -8.4157  -8.4148  -8.4107
    -8.4041  -8.4034  -8.4018  -8.3962  -4.5835  -4.1735  -3.3607  -3.3167
     0.4289   0.5500   1.2001   2.2148   3.0348   3.2632   3.8064   4.1185
     4.2205   4.4101   4.6608   5.2836   7.4619   8.0017   8.1494   8.5880
     9.0456   9.3646   9.7189

          k =-0.0196-0.0784 0.0392 (  6002 PWs)   bands (ev):

    -8.5991  -8.5593  -8.5412  -8.5396  -8.4971  -8.4914  -8.4909  -8.4645
    -8.4565  -8.4546  -8.4457  -8.4425  -8.4154  -8.4149  -8.4142  -8.4095
    -8.4038  -8.4027  -8.4025  -8.3985  -4.5196  -3.9463  -3.9345  -3.0490
     0.4205   0.5969   1.3825   1.9250   3.0316   3.1509   4.1631   4.1848
     4.1995   4.2358   4.7971   4.8503   7.8362   8.1078   8.3427   8.7426
     8.9728   9.3699   9.6503

          k =-0.0784 0.0196 0.0392 (  6002 PWs)   bands (ev):

    -8.5842  -8.5842  -8.5351  -8.5346  -8.4922  -8.4921  -8.4835  -8.4835
    -8.4580  -8.4579  -8.4379  -8.4379  -8.4150  -8.4150  -8.4124  -8.4124
    -8.4051  -8.4051  -8.3988  -8.3988  -4.3742  -4.3703  -3.3578  -3.3572
     0.4799   0.4808   1.6783   1.6785   3.1037   3.1056   4.1702   4.1709
     4.2213   4.2223   4.8236   4.8254   7.8865   7.8874   8.6684   8.6686
     9.1219   9.1227   9.8440

          k = 0.0588 0.0196 0.0588 (  6008 PWs)   bands (ev):

    -8.5856  -8.5784  -8.5367  -8.5311  -8.4978  -8.4909  -8.4883  -8.4837
    -8.4572  -8.4545  -8.4426  -8.4388  -8.4150  -8.4134  -8.4130  -8.4102
    -8.4055  -8.4055  -8.4005  -8.3968  -4.4396  -4.1900  -3.4332  -3.4217
     0.5006   0.6952   1.1111   1.7560   3.0920   3.5121   3.5482   4.2604
     4.5154   4.5369   4.5393   5.3201   7.4847   8.0372   8.0653   8.5593
     9.3722   9.7067   9.9514

          k =-0.0196-0.0784 0.0588 (  6002 PWs)   bands (ev):

    -8.5901  -8.5683  -8.5371  -8.5361  -8.4965  -8.4933  -8.4863  -8.4722
    -8.4603  -8.4602  -8.4464  -8.4446  -8.4123  -8.4121  -8.4116  -8.4068
    -8.4048  -8.4044  -8.4034  -8.3997  -4.3932  -4.0826  -3.7544  -3.2787
     0.5684   0.8158   1.0779   1.5031   3.2052   3.3144   3.8383   3.8916
     4.5878   4.6303   4.9817   5.0020   7.7070   7.9013   8.0810   8.3468
     9.6056   9.8618   9.8913

          k =-0.0784 0.0196 0.0588 (  6002 PWs)   bands (ev):

    -8.5800  -8.5800  -8.5342  -8.5337  -8.4952  -8.4952  -8.4871  -8.4871
    -8.4560  -8.4559  -8.4420  -8.4420  -8.4132  -8.4132  -8.4106  -8.4106
    -8.4068  -8.4068  -8.3984  -8.3984  -4.2901  -4.2858  -3.4644  -3.4642
     0.6196   0.6208   1.3491   1.3494   3.2692   3.2712   3.8694   3.8711
     4.6082   4.6086   4.9997   5.0011   7.7787   7.7793   8.2752   8.2753
     9.6759   9.6767   9.9715

          k =-0.0784 0.0196-0.0784 (  6012 PWs)   bands (ev):

    -8.5781  -8.5781  -8.5341  -8.5335  -8.4965  -8.4964  -8.4884  -8.4884
    -8.4551  -8.4550  -8.4439  -8.4439  -8.4122  -8.4121  -8.4096  -8.4096
    -8.4081  -8.4081  -8.3984  -8.3984  -4.2482  -4.2437  -3.5157  -3.5157
     0.7299   0.7314   1.1679   1.1679   3.5061   3.5098   3.5629   3.5629
     4.8864   4.8864   4.9845   4.9863   7.7183   7.7188   8.1013   8.1013
    10.0551  10.0571  10.0799

          k =-0.0392 0.0588 0.0392 (  6001 PWs)   bands (ev):

    -8.5958  -8.5681  -8.5389  -8.5341  -8.4987  -8.4911  -8.4905  -8.4715
    -8.4569  -8.4562  -8.4454  -8.4418  -8.4145  -8.4145  -8.4143  -8.4056
    -8.4054  -8.4033  -8.4017  -8.3967  -4.5274  -4.0144  -3.7293  -3.1606
     0.4030   0.6531   0.8821   1.8399   3.3281   3.4086   3.8891   4.3586
     4.3826   4.4938   5.0703   5.0706   7.0504   7.7958   7.9224   8.3103
     9.4491   9.6051   9.8116

          k =-0.0392-0.0784 0.0392 (  6004 PWs)   bands (ev):

    -8.5946  -8.5636  -8.5385  -8.5375  -8.4981  -8.4931  -8.4899  -8.4718
    -8.4577  -8.4568  -8.4466  -8.4444  -8.4138  -8.4132  -8.4126  -8.4057
    -8.4045  -8.4042  -8.4024  -8.3973  -4.4497  -4.0081  -3.8342  -3.1505
     0.3719   0.6103   1.1141   1.5373   3.3290   3.4138   4.3670   4.4006
     4.4416   4.5235   4.7377   4.7934   7.4215   7.7687   7.9502   8.5546
     9.3514   9.4510   9.6822

          k = 0.0588 0.0392 0.0588 (  5983 PWs)   bands (ev):

    -8.5848  -8.5768  -8.5355  -8.5320  -8.4985  -8.4937  -8.4889  -8.4844
    -8.4579  -8.4567  -8.4452  -8.4425  -8.4129  -8.4126  -8.4111  -8.4083
    -8.4047  -8.4040  -8.3997  -8.3964  -4.3804  -4.1721  -3.4766  -3.4069
     0.4577   0.5272   0.8769   1.3867   3.5379   3.8196   3.8905   4.6054
     4.6099   4.6295   4.7540   5.2270   6.9259   7.5496   7.8963   8.1203
     9.5407   9.7688   9.8417

          k =-0.0392-0.0784 0.0588 (  5990 PWs)   bands (ev):

    -8.5875  -8.5706  -8.5357  -8.5349  -8.4983  -8.4954  -8.4880  -8.4790
    -8.4602  -8.4586  -8.4475  -8.4463  -8.4124  -8.4106  -8.4101  -8.4054
    -8.4051  -8.4030  -8.4020  -8.3975  -4.3453  -4.1048  -3.6806  -3.3076
     0.4126   0.6811   0.8161   1.1530   3.6949   3.7263   4.3107   4.3698
     4.6662   4.7137   4.9317   4.9722   7.1392   7.4814   7.6159   8.1297
     9.6227   9.6746   9.9069

          k =-0.0784 0.0392 0.0588 (  5990 PWs)   bands (ev):

    -8.5795  -8.5795  -8.5339  -8.5334  -8.4969  -8.4969  -8.4880  -8.4880
    -8.4574  -8.4573  -8.4449  -8.4449  -8.4120  -8.4120  -8.4089  -8.4089
    -8.4051  -8.4051  -8.3977  -8.3977  -4.2578  -4.2535  -3.4623  -3.4622
     0.4818   0.4837   1.0425   1.0429   3.7108   3.7133   4.3461   4.3472
     4.6880   4.6882   4.9593   4.9610   7.2471   7.2479   7.9392   7.9393
     9.7161   9.7169   9.8024

          k =-0.0784 0.0392-0.0784 (  5972 PWs)   bands (ev):

    -8.5783  -8.5783  -8.5337  -8.5331  -8.4979  -8.4979  -8.4894  -8.4894
    -8.4567  -8.4566  -8.4464  -8.4464  -8.4113  -8.4113  -8.4081  -8.4081
    -8.4055  -8.4055  -8.3973  -8.3973  -4.2293  -4.2249  -3.4885  -3.4885
     0.5274   0.5298   0.8886   0.8886   3.9867   3.9905   4.1056   4.1056
     4.9026   4.9026   5.0038   5.0055   7.1979   7.1987   7.7033   7.7033
     9.8932   9.9742   9.9762

          k =-0.0588-0.0784 0.0588 (  6000 PWs)   bands (ev):

    -8.5836  -8.5743  -8.5342  -8.5336  -8.4994  -8.4977  -8.4896  -8.4854
    -8.4599  -8.4585  -8.4486  -8.4480  -8.4116  -8.4100  -8.4082  -8.4056
    -8.4043  -8.4025  -8.3989  -8.3963  -4.2780  -4.1462  -3.5752  -3.3682
     0.3233   0.5497   0.6070   0.8441   4.2186   4.2669   4.7339   4.7741
     4.7902   4.8492   4.8681   4.9579   6.6371   6.9445   7.1843   7.6475
     9.7014   9.8098  10.0137

          k =-0.0784 0.0588-0.0784 (  5980 PWs)   bands (ev):

    -8.5787  -8.5787  -8.5333  -8.5328  -8.4994  -8.4994  -8.4903  -8.4903
    -8.4582  -8.4581  -8.4486  -8.4486  -8.4107  -8.4107  -8.4066  -8.4066
    -8.4033  -8.4033  -8.3964  -8.3964  -4.2101  -4.2056  -3.4605  -3.4605
     0.3561   0.3590   0.6651   0.6651   4.5761   4.5800   4.6998   4.6998
     4.9188   4.9188   5.0232   5.0249   6.5610   6.5619   7.1714   7.1714
     9.9267   9.9269  10.0474

     the Fermi energy is     5.8983 ev

!    total energy              =   -2690.45407534 Ry
     Harris-Foulkes estimate   =   -2690.45407539 Ry
     estimated scf accuracy    <       0.00000005 Ry

     total all-electron energy =    -82024.250620 Ry

     The total energy is the sum of the following terms:

     one-electron contribution =    -241.28365964 Ry
     hartree contribution      =     154.38195763 Ry
     xc contribution           =    -217.70015092 Ry
     ewald contribution        =    -329.86336085 Ry
     one-center paw contrib.   =   -2055.98885910 Ry
     smearing contrib. (-TS)   =      -0.00000246 Ry

     convergence has been achieved in   8 iterations

     Forces acting on atoms (Ry/au):

     atom    1 type  1   force =     0.00014149   -0.04057538   -0.00014149
     atom    2 type  1   force =     0.00014149    0.04057538    0.00014149
     atom    3 type  1   force =    -0.00014149   -0.04057538    0.00014149
     atom    4 type  1   force =    -0.00014149    0.04057538   -0.00014149
     atom    5 type  2   force =     0.00000000    0.00000000    0.00000000
     atom    6 type  3   force =     0.00000000    0.00000000    0.00000000
     atom    7 type  2   force =     0.00000000    0.00000000    0.00000000
     atom    8 type  3   force =     0.00000000    0.00000000    0.00000000

     Total force =     0.081152     Total SCF correction =     0.000673


     entering subroutine stress ...

          total   stress  (Ry/bohr**3)                   (kbar)     P=    8.33
   0.00006008   0.00000000   0.00000000          8.84      0.00      0.00
   0.00000000   0.00004979   0.00000000          0.00      7.32      0.00
   0.00000000   0.00000000   0.00006008          0.00      0.00      8.84


     BFGS Geometry Optimization

     number of scf cycles    =   1
     number of bfgs steps    =   0

     enthalpy new            =   -2690.4540753412 Ry

     new trust radius        =       0.0405758769 bohr
     new conv_thr            =       0.0000001000 Ry

     new unit-cell volume =   1757.14249 a.u.^3 (   260.38165 Ang^3 )

CELL_PARAMETERS (alat=  1.88972613)
   6.386172626   0.000000000   0.000000000
   0.000000000   6.384531982   0.000000000
   0.000000000   0.000000000   6.386172626

ATOMIC_POSITIONS (crystal)
In       0.749954238   0.246690257   0.250045762
In       0.749954238   0.753309743   0.749954238
In       0.250045762   0.246690257   0.749954238
In       0.250045762   0.753309743   0.250045762
As       0.000000000   0.000000000   0.000000000
Sb       0.000000000   0.500000000   0.500000000
As       0.500000000   0.000000000   0.500000000
Sb       0.500000000   0.500000000   0.000000000


     NEW-OLD atomic charge density approx. for the potential

     Check: negative/imaginary core charge=   -0.000013    0.000000
     extrapolated charge   72.30498, renormalised to   72.00000

     total cpu time spent up to now is      187.8 secs

     Self-consistent Calculation

     iteration #  1     ecut=    34.55 Ry     beta=0.70
     Davidson diagonalization with overlap
     ethr =  1.00E-06,  avg # of iterations =  5.3

     total cpu time spent up to now is      217.9 secs

     total energy              =   -2690.45778077 Ry
     Harris-Foulkes estimate   =   -2689.49222008 Ry
     estimated scf accuracy    <       0.00127789 Ry

     iteration #  2     ecut=    34.55 Ry     beta=0.70
     Davidson diagonalization with overlap
     c_bands:  1 eigenvalues not converged
     ethr =  1.77E-06,  avg # of iterations =  4.8

     total cpu time spent up to now is      245.9 secs

     total energy              =   -2690.46012779 Ry
     Harris-Foulkes estimate   =   -2690.46210471 Ry
     estimated scf accuracy    <       0.00340412 Ry

     iteration #  3     ecut=    34.55 Ry     beta=0.70
     Davidson diagonalization with overlap
     ethr =  1.77E-06,  avg # of iterations =  2.4

     total cpu time spent up to now is      262.2 secs

     total energy              =   -2690.46035413 Ry
     Harris-Foulkes estimate   =   -2690.46054386 Ry
     estimated scf accuracy    <       0.00046068 Ry

     iteration #  4     ecut=    34.55 Ry     beta=0.70
     Davidson diagonalization with overlap
     ethr =  6.40E-07,  avg # of iterations =  1.2

     total cpu time spent up to now is      272.8 secs

     total energy              =   -2690.46026024 Ry
     Harris-Foulkes estimate   =   -2690.46038230 Ry
     estimated scf accuracy    <       0.00021088 Ry

     iteration #  5     ecut=    34.55 Ry     beta=0.70
     Davidson diagonalization with overlap
     ethr =  2.93E-07,  avg # of iterations =  3.0

     total cpu time spent up to now is      289.7 secs

     total energy              =   -2690.46031615 Ry
     Harris-Foulkes estimate   =   -2690.46031798 Ry
     estimated scf accuracy    <       0.00002150 Ry

     iteration #  6     ecut=    34.55 Ry     beta=0.70
     Davidson diagonalization with overlap
     ethr =  2.99E-08,  avg # of iterations =  2.3

     total cpu time spent up to now is      302.2 secs

     total energy              =   -2690.46031383 Ry
     Harris-Foulkes estimate   =   -2690.46031774 Ry
     estimated scf accuracy    <       0.00000902 Ry

     iteration #  7     ecut=    34.55 Ry     beta=0.70
     Davidson diagonalization with overlap
     ethr =  1.25E-08,  avg # of iterations =  3.0

     total cpu time spent up to now is      320.7 secs

     total energy              =   -2690.46031718 Ry
     Harris-Foulkes estimate   =   -2690.46031727 Ry
     estimated scf accuracy    <       0.00000011 Ry

     iteration #  8     ecut=    34.55 Ry     beta=0.70
     Davidson diagonalization with overlap
     ethr =  1.56E-10,  avg # of iterations =  3.6

     total cpu time spent up to now is      342.5 secs

     End of self-consistent calculation

          k = 0.0000 0.0000 0.0000 (  6031 PWs)   bands (ev):

    -8.6454  -8.6236  -8.6027  -8.5358  -8.5358  -8.5309  -8.5015  -8.4830
    -8.4830  -8.4708  -8.4708  -8.4626  -8.4626  -8.4602  -8.4577  -8.4429
    -8.4421  -8.4304  -8.4283  -8.4283  -5.1647  -3.8944  -3.3046  -2.7818
     0.1884   0.1884   0.1926   3.7250   3.7354   3.7354   3.7368   3.7368
     3.7531   5.3245   5.8340   5.8534   5.8534   7.1659   7.4429   7.5071
     7.5071   7.5219   7.5859

          k = 0.0000 0.0000 0.0196 (  6007 PWs)   bands (ev):

    -8.6426  -8.6219  -8.6004  -8.5394  -8.5345  -8.5291  -8.5027  -8.4849
    -8.4846  -8.4737  -8.4711  -8.4621  -8.4617  -8.4587  -8.4578  -8.4430
    -8.4421  -8.4310  -8.4290  -8.4289  -5.1221  -3.9363  -3.2964  -2.8534
     0.2036   0.2075   0.3651   3.6409   3.6418   3.6564   3.6580   3.7892
     3.7936   4.6863   5.6911   5.7053   6.4598   7.2420   7.5858   7.6896
     7.7227   7.7406   7.7654

          k = 0.0000 0.0000 0.0391 (  5995 PWs)   bands (ev):

    -8.6347  -8.6175  -8.5940  -8.5492  -8.5307  -8.5240  -8.5061  -8.4898
    -8.4897  -8.4812  -8.4711  -8.4630  -8.4593  -8.4562  -8.4552  -8.4448
    -8.4407  -8.4332  -8.4313  -8.4306  -4.9976  -4.0704  -3.2733  -2.9971
     0.2417   0.2448   0.8287   3.4320   3.4329   3.4863   3.4881   3.8435
     3.9451   3.9491   5.3456   5.3532   7.2067   7.3402   7.9019   8.2645
     8.2836   8.3030   8.3048

          k = 0.0000 0.0000 0.0587 (  5990 PWs)   bands (ev):

    -8.6242  -8.6139  -8.5851  -8.5622  -8.5248  -8.5161  -8.5115  -8.4976
    -8.4946  -8.4899  -8.4704  -8.4659  -8.4557  -8.4526  -8.4514  -8.4477
    -8.4385  -8.4361  -8.4347  -8.4330  -4.8014  -4.2920  -3.2382  -3.1155
     0.2825   0.2842   1.4684   3.0091   3.2435   3.2438   3.3377   3.3391
     4.1978   4.2022   4.9317   4.9370   7.5020   7.7929   8.1970   8.2597
     8.9972   9.0158   9.0946

          k = 0.0000 0.0000-0.0783 (  5942 PWs)   bands (ev):

    -8.6156  -8.6155  -8.5749  -8.5745  -8.5180  -8.5179  -8.5068  -8.5068
    -8.4951  -8.4951  -8.4685  -8.4684  -8.4516  -8.4516  -8.4498  -8.4498
    -8.4369  -8.4369  -8.4358  -8.4358  -4.5555  -4.5525  -3.1899  -3.1893
     0.3007   0.3008   2.2087   2.2093   3.1699   3.1700   3.2810   3.2820
     4.5332   4.5354   4.5381   4.5403   7.7431   7.7449   8.2940   8.2944
     9.4349   9.4350   9.9932

          k = 0.0000 0.0196 0.0196 (  5996 PWs)   bands (ev):

    -8.6407  -8.6187  -8.5986  -8.5403  -8.5336  -8.5304  -8.5050  -8.4852
    -8.4850  -8.4750  -8.4724  -8.4621  -8.4605  -8.4588  -8.4582  -8.4432
    -8.4419  -8.4314  -8.4297  -8.4295  -5.0823  -3.9320  -3.3965  -2.8470
     0.2187   0.3614   0.3688   3.3751   3.6727   3.6746   3.7372   3.7400
     3.8242   4.2780   5.5541   5.7895   6.6104   7.3765   7.6502   7.6635
     7.8560   7.8869   8.2169

          k = 0.0000 0.0196 0.0391 (  5992 PWs)   bands (ev):

    -8.6331  -8.6148  -8.5925  -8.5501  -8.5304  -8.5245  -8.5083  -8.4902
    -8.4899  -8.4824  -8.4726  -8.4644  -8.4582  -8.4557  -8.4548  -8.4445
    -8.4409  -8.4334  -8.4319  -8.4310  -4.9603  -4.0620  -3.3599  -2.9967
     0.2588   0.3687   0.8036   3.1257   3.4122   3.5714   3.6349   3.8067
     3.8228   3.9382   5.1925   5.5221   7.1655   7.5451   7.8412   8.1077
     8.2693   8.4130   8.9048

          k = 0.0000 0.0196 0.0587 (  5992 PWs)   bands (ev):

    -8.6228  -8.6117  -8.5840  -8.5626  -8.5253  -8.5165  -8.5133  -8.4979
    -8.4948  -8.4908  -8.4719  -8.4675  -8.4548  -8.4518  -8.4510  -8.4470
    -8.4389  -8.4360  -8.4352  -8.4332  -4.7686  -4.2750  -3.3041  -3.1326
     0.3083   0.3680   1.4012   2.8195   2.9876   3.1591   3.5715   3.7043
     4.0485   4.2407   4.7715   5.0793   7.7438   7.7658   8.2829   8.4693
     8.4766   8.9906   9.2632

          k = 0.0000 0.0196-0.0783 (  6004 PWs)   bands (ev):

    -8.6143  -8.6142  -8.5745  -8.5741  -8.5193  -8.5193  -8.5072  -8.5072
    -8.4958  -8.4958  -8.4702  -8.4702  -8.4510  -8.4510  -8.4490  -8.4490
    -8.4377  -8.4377  -8.4358  -8.4358  -4.5295  -4.5265  -3.2313  -3.2307
     0.3484   0.3485   2.0873   2.0878   2.9997   3.0005   3.5977   3.5980
     4.3753   4.3769   4.6305   4.6319   7.9543   7.9560   8.3451   8.3454
     9.1262   9.1263  10.1089

          k = 0.0000 0.0392 0.0391 (  5976 PWs)   bands (ev):

    -8.6289  -8.6069  -8.5887  -8.5551  -8.5294  -8.5245  -8.5138  -8.4909
    -8.4903  -8.4853  -8.4763  -8.4691  -8.4553  -8.4535  -8.4534  -8.4441
    -8.4409  -8.4339  -8.4336  -8.4324  -4.8551  -4.0413  -3.5742  -2.9963
     0.3081   0.6978   0.7328   2.9058   3.0163   3.5050   3.5056   3.9316
     3.9346   4.0699   4.8240   5.6122   7.2641   7.6617   8.2659   8.3065
     8.5408   8.5668   9.4045

          k = 0.0000 0.0392 0.0587 (  6012 PWs)   bands (ev):

    -8.6192  -8.6057  -8.5815  -8.5648  -8.5263  -8.5178  -8.5169  -8.4987
    -8.4954  -8.4929  -8.4759  -8.4720  -8.4523  -8.4498  -8.4495  -8.4453
    -8.4397  -8.4367  -8.4362  -8.4341  -4.6776  -4.2313  -3.4706  -3.1769
     0.3867   0.5974   1.2258   2.4006   2.8438   3.1831   3.7086   3.9747
     4.1308   4.3442   4.4003   5.3073   7.6765   7.9760   8.3380   8.6758
     8.8019   9.1179   9.3744

          k = 0.0000 0.0392-0.0783 (  6018 PWs)   bands (ev):

    -8.6101  -8.6100  -8.5739  -8.5735  -8.5222  -8.5222  -8.5078  -8.5078
    -8.4969  -8.4969  -8.4745  -8.4744  -8.4494  -8.4494  -8.4466  -8.4466
    -8.4390  -8.4390  -8.4361  -8.4361  -4.4597  -4.4566  -3.3372  -3.3368
     0.4871   0.4874   1.7934   1.7936   2.9440   2.9451   4.0137   4.0152
     4.0621   4.0622   4.8267   4.8278   8.1442   8.1446   8.5118   8.5123
     8.8928   8.8934  10.2778

          k = 0.0000 0.0587 0.0587 (  6020 PWs)   bands (ev):

    -8.6151  -8.5972  -8.5789  -8.5704  -8.5264  -8.5222  -8.5167  -8.4993
    -8.4958  -8.4951  -8.4805  -8.4773  -8.4490  -8.4479  -8.4466  -8.4439
    -8.4404  -8.4384  -8.4370  -8.4360  -4.5596  -4.1831  -3.6589  -3.2264
     0.5148   0.9202   1.0051   1.9376   2.8647   3.3409   3.3438   3.9849
     4.4406   4.4663   4.4707   5.2970   7.7321   7.8883   8.4962   8.5000
     9.4496   9.4514   9.9719

          k = 0.0000 0.0587-0.0783 (  6012 PWs)   bands (ev):

    -8.6049  -8.6048  -8.5742  -8.5738  -8.5246  -8.5246  -8.5082  -8.5082
    -8.4980  -8.4979  -8.4793  -8.4793  -8.4468  -8.4468  -8.4436  -8.4436
    -8.4406  -8.4406  -8.4375  -8.4375  -4.3754  -4.3720  -3.4569  -3.4566
     0.6993   0.6999   1.4489   1.4491   3.0413   3.0426   3.6176   3.6191
     4.5371   4.5375   4.9617   4.9626   7.9762   7.9772   8.2344   8.2357
     9.6964   9.6973  10.3374

          k = 0.0000-0.0783-0.0783 (  6024 PWs)   bands (ev):

    -8.6023  -8.6023  -8.5748  -8.5744  -8.5254  -8.5254  -8.5083  -8.5082
    -8.4984  -8.4984  -8.4816  -8.4816  -8.4450  -8.4450  -8.4430  -8.4430
    -8.4405  -8.4405  -8.4392  -8.4392  -4.3338  -4.3303  -3.5129  -3.5128
     0.8717   0.8731   1.2260   1.2269   3.2430   3.2446   3.3100   3.3113
     4.8713   4.8728   4.8838   4.8866   7.8431   7.8443   8.1273   8.1290
    10.3549  10.3562  10.4569

          k = 0.0196 0.0196 0.0196 (  5983 PWs)   bands (ev):

    -8.6380  -8.6171  -8.5965  -8.5427  -8.5334  -8.5287  -8.5062  -8.4886
    -8.4851  -8.4767  -8.4734  -8.4631  -8.4591  -8.4582  -8.4571  -8.4427
    -8.4423  -8.4320  -8.4311  -8.4292  -5.0414  -3.9651  -3.3868  -2.9149
     0.3238   0.3642   0.4177   3.4285   3.4430   3.4612   3.8719   3.8730
     3.8764   3.9400   5.6588   5.6731   6.6370   7.3976   7.6000   7.6647
     8.1571   8.2801   8.3517

          k = 0.0196 0.0196 0.0391 (  5990 PWs)   bands (ev):

    -8.6307  -8.6134  -8.5908  -8.5512  -8.5308  -8.5242  -8.5093  -8.4948
    -8.4883  -8.4829  -8.4739  -8.4655  -8.4569  -8.4553  -8.4542  -8.4440
    -8.4410  -8.4339  -8.4335  -8.4302  -4.9221  -4.0746  -3.3598  -3.0577
     0.3605   0.3702   0.7855   3.1884   3.2044   3.3184   3.6497   3.8781
     3.8799   4.0250   5.3478   5.4309   7.0376   7.5756   7.8978   7.9039
     8.3905   8.9128   8.9798

          k = 0.0196 0.0196 0.0587 (  6004 PWs)   bands (ev):

    -8.6210  -8.6105  -8.5830  -8.5629  -8.5259  -8.5174  -8.5142  -8.5023
    -8.4928  -8.4904  -8.4733  -8.4687  -8.4538  -8.4513  -8.4508  -8.4463
    -8.4388  -8.4364  -8.4363  -8.4324  -4.7356  -4.2660  -3.3191  -3.1827
     0.3705   0.3747   1.3279   2.6140   3.0512   3.0580   3.8001   3.8010
     3.9805   4.2674   4.9302   4.9637   7.5992   7.7847   8.4481   8.5160
     8.5695   8.7671   9.7050

          k = 0.0196 0.0196-0.0783 (  6008 PWs)   bands (ev):

    -8.6128  -8.6127  -8.5741  -8.5738  -8.5200  -8.5200  -8.5098  -8.5098
    -8.4945  -8.4945  -8.4715  -8.4715  -8.4506  -8.4506  -8.4485  -8.4485
    -8.4384  -8.4384  -8.4352  -8.4352  -4.5055  -4.5025  -3.2645  -3.2640
     0.3748   0.3752   1.9511   1.9515   3.0020   3.0031   3.7573   3.7575
     4.4186   4.4204   4.5874   4.5896   7.8981   7.8993   8.5769   8.5776
     9.0010   9.0011   9.8470

          k = 0.0196 0.0392 0.0391 (  5993 PWs)   bands (ev):

    -8.6269  -8.6059  -8.5873  -8.5564  -8.5295  -8.5241  -8.5147  -8.4954
    -8.4891  -8.4860  -8.4775  -8.4701  -8.4541  -8.4529  -8.4529  -8.4432
    -8.4411  -8.4350  -8.4342  -8.4315  -4.8202  -4.0572  -3.5611  -3.0465
     0.3684   0.6604   0.7055   2.7741   3.0218   3.4296   3.4338   4.0601
     4.0631   4.1148   5.0479   5.5300   7.0219   7.6563   7.9986   8.0127
     9.0077   9.0093   9.6779

          k = 0.0196 0.0392 0.0587 (  6017 PWs)   bands (ev):

    -8.6178  -8.6049  -8.5807  -8.5653  -8.5267  -8.5187  -8.5177  -8.5028
    -8.4935  -8.4925  -8.4772  -8.4732  -8.4514  -8.4497  -8.4491  -8.4445
    -8.4392  -8.4376  -8.4363  -8.4333  -4.6487  -4.2278  -3.4699  -3.2105
     0.4027   0.5592   1.1354   2.1962   2.9789   3.2277   3.7677   4.0785
     4.1799   4.3693   4.6202   5.2339   7.3997   7.8696   8.1811   8.5101
     9.0459   9.2759   9.6009

          k = 0.0196 0.0392-0.0783 (  6002 PWs)   bands (ev):

    -8.6090  -8.6090  -8.5736  -8.5733  -8.5228  -8.5228  -8.5103  -8.5103
    -8.4956  -8.4956  -8.4757  -8.4757  -8.4489  -8.4489  -8.4461  -8.4461
    -8.4390  -8.4390  -8.4356  -8.4355  -4.4408  -4.4377  -3.3529  -3.3525
     0.4660   0.4666   1.6414   1.6417   3.0606   3.0620   4.1303   4.1305
     4.1799   4.1813   4.7804   4.7818   7.8269   7.8277   8.5605   8.5610
     9.0921   9.0926   9.8435

          k = 0.0196 0.0587 0.0587 (  6008 PWs)   bands (ev):

    -8.6140  -8.5972  -8.5783  -8.5705  -8.5268  -8.5229  -8.5176  -8.5034
    -8.4948  -8.4938  -8.4814  -8.4781  -8.4482  -8.4482  -8.4462  -8.4425
    -8.4398  -8.4391  -8.4369  -8.4347  -4.5375  -4.1864  -3.6415  -3.2421
     0.4781   0.8315   0.9094   1.7463   3.0422   3.4890   3.4897   4.2176
     4.4704   4.4950   4.4994   5.2654   7.4316   7.8076   8.2998   8.3125
     9.4596   9.4855  10.0086

          k = 0.0196 0.0587-0.0783 (  6002 PWs)   bands (ev):

    -8.6045  -8.6045  -8.5740  -8.5736  -8.5252  -8.5252  -8.5107  -8.5107
    -8.4965  -8.4965  -8.4803  -8.4803  -8.4467  -8.4467  -8.4435  -8.4435
    -8.4399  -8.4399  -8.4367  -8.4366  -4.3641  -4.3607  -3.4536  -3.4533
     0.6269   0.6278   1.2956   1.2960   3.2266   3.2281   3.8272   3.8286
     4.5649   4.5653   4.9495   4.9504   7.6973   7.6982   8.1954   8.1964
     9.6833   9.6840   9.9722

          k = 0.0196-0.0783-0.0783 (  6012 PWs)   bands (ev):

    -8.6023  -8.6023  -8.5746  -8.5741  -8.5260  -8.5260  -8.5109  -8.5109
    -8.4969  -8.4968  -8.4824  -8.4824  -8.4454  -8.4454  -8.4425  -8.4425
    -8.4400  -8.4400  -8.4378  -8.4378  -4.3270  -4.3235  -3.5006  -3.5005
     0.7728   0.7742   1.0797   1.0806   3.4727   3.4728   3.5134   3.5138
     4.8785   4.8801   4.8914   4.8943   7.6123   7.6135   8.0560   8.0573
    10.0647  10.0661  10.1112

          k = 0.0391 0.0392 0.0391 (  5983 PWs)   bands (ev):

    -8.6212  -8.6038  -8.5835  -8.5606  -8.5293  -8.5225  -8.5173  -8.5021
    -8.4901  -8.4883  -8.4797  -8.4728  -8.4514  -8.4512  -8.4510  -8.4418
    -8.4405  -8.4368  -8.4353  -8.4312  -4.7196  -4.1139  -3.5242  -3.1664
     0.4826   0.5713   0.7014   2.2878   3.3481   3.3568   3.3588   4.2311
     4.2397   4.2587   5.3084   5.3258   6.7242   7.6378   7.8696   7.9948
     9.4475   9.5547   9.8319

          k = 0.0391 0.0392 0.0587 (  6001 PWs)   bands (ev):

    -8.6135  -8.6030  -8.5785  -8.5669  -8.5276  -8.5208  -8.5193  -8.5092
    -8.4925  -8.4918  -8.4802  -8.4761  -8.4493  -8.4490  -8.4476  -8.4429
    -8.4385  -8.4380  -8.4367  -8.4322  -4.5676  -4.2271  -3.4686  -3.2945
     0.4654   0.4831   0.9368   1.7776   3.3358   3.3393   3.8495   4.3228
     4.3250   4.4568   5.0217   5.0420   6.9666   7.6636   8.0752   8.1533
     9.4007   9.6489   9.7617

          k = 0.0391 0.0392-0.0783 (  6004 PWs)   bands (ev):

    -8.6064  -8.6064  -8.5733  -8.5729  -8.5245  -8.5245  -8.5150  -8.5150
    -8.4937  -8.4936  -8.4788  -8.4788  -8.4480  -8.4479  -8.4447  -8.4447
    -8.4390  -8.4390  -8.4344  -8.4344  -4.3920  -4.3888  -3.3949  -3.3946
     0.4428   0.4438   1.3164   1.3168   3.3395   3.3413   4.3313   4.3319
     4.4541   4.4551   4.7226   4.7246   7.4305   7.4312   8.3061   8.3063
     9.4166   9.4170   9.6444

          k = 0.0391 0.0587 0.0587 (  5983 PWs)   bands (ev):

    -8.6111  -8.5975  -8.5767  -8.5710  -8.5278  -8.5246  -8.5194  -8.5097
    -8.4942  -8.4927  -8.4834  -8.4804  -8.4480  -8.4464  -8.4450  -8.4407
    -8.4394  -8.4379  -8.4367  -8.4329  -4.4763  -4.2013  -3.5929  -3.2880
     0.4207   0.6419   0.7207   1.3613   3.4939   3.8116   3.8177   4.5509
     4.5544   4.5895   4.7336   5.1755   6.8630   7.4848   7.8518   8.0524
     9.5518   9.5693   9.9229

          k = 0.0391 0.0587-0.0783 (  5990 PWs)   bands (ev):

    -8.6036  -8.6036  -8.5736  -8.5732  -8.5266  -8.5266  -8.5156  -8.5156
    -8.4946  -8.4945  -8.4825  -8.4825  -8.4463  -8.4463  -8.4424  -8.4424
    -8.4388  -8.4388  -8.4347  -8.4347  -4.3361  -4.3327  -3.4462  -3.4461
     0.4871   0.4884   0.9877   0.9883   3.6703   3.6721   4.3017   4.3027
     4.6493   4.6497   4.9087   4.9098   7.1636   7.1644   7.9002   7.9006
     9.6706   9.6707   9.7977

          k = 0.0391-0.0783-0.0783 (  5972 PWs)   bands (ev):

    -8.6023  -8.6023  -8.5739  -8.5735  -8.5274  -8.5274  -8.5158  -8.5158
    -8.4948  -8.4948  -8.4842  -8.4842  -8.4456  -8.4456  -8.4412  -8.4412
    -8.4386  -8.4386  -8.4350  -8.4350  -4.3106  -4.3071  -3.4702  -3.4701
     0.5649   0.5666   0.8038   0.8044   3.9501   3.9514   4.0596   4.0613
     4.8964   4.8979   4.9106   4.9134   7.0876   7.0886   7.6968   7.6974
     9.8645   9.8647   9.9610

          k = 0.0587 0.0587 0.0587 (  5983 PWs)   bands (ev):

    -8.6070  -8.5992  -8.5748  -8.5719  -8.5284  -8.5266  -8.5206  -8.5157
    -8.4935  -8.4928  -8.4850  -8.4830  -8.4469  -8.4455  -8.4429  -8.4404
    -8.4389  -8.4371  -8.4352  -8.4322  -4.3915  -4.2388  -3.5220  -3.3577
     0.3978   0.4735   0.6112   0.9868   4.0324   4.0949   4.1706   4.6642
     4.6733   4.7381   5.0305   5.0710   6.4798   7.0637   7.4794   7.7147
     9.6411   9.6938   9.8205

          k = 0.0587 0.0587-0.0783 (  6000 PWs)   bands (ev):

    -8.6027  -8.6026  -8.5733  -8.5729  -8.5281  -8.5280  -8.5197  -8.5197
    -8.4933  -8.4932  -8.4850  -8.4849  -8.4459  -8.4459  -8.4411  -8.4411
    -8.4380  -8.4380  -8.4330  -8.4330  -4.3069  -4.3034  -3.4398  -3.4398
     0.3944   0.3961   0.7134   0.7138   4.1898   4.1919   4.6840   4.6854
     4.7910   4.7933   4.8971   4.8983   6.6752   6.6759   7.4121   7.4121
     9.7667   9.7672   9.8730

          k = 0.0587-0.0783-0.0783 (  5980 PWs)   bands (ev):

    -8.6023  -8.6023  -8.5733  -8.5729  -8.5287  -8.5286  -8.5200  -8.5200
    -8.4937  -8.4936  -8.4859  -8.4859  -8.4454  -8.4454  -8.4403  -8.4403
    -8.4374  -8.4374  -8.4328  -8.4328  -4.2939  -4.2904  -3.4386  -3.4386
     0.3838   0.3859   0.5887   0.5889   4.5110   4.5122   4.6722   4.6743
     4.9188   4.9202   4.9389   4.9414   6.4791   6.4799   7.1422   7.1423
     9.9079   9.9079  10.0289

          k =-0.0783-0.0783-0.0783 (  6008 PWs)   bands (ev):

    -8.6024  -8.6024  -8.5731  -8.5727  -8.5292  -8.5292  -8.5216  -8.5216
    -8.4934  -8.4933  -8.4868  -8.4868  -8.4453  -8.4453  -8.4400  -8.4400
    -8.4370  -8.4370  -8.4321  -8.4321  -4.2869  -4.2833  -3.4252  -3.4252
     0.3138   0.3161   0.5110   0.5110   4.8191   4.8191   4.8981   4.9015
     4.9573   4.9573   5.0534   5.0547   6.1258   6.1263   6.8210   6.8210
     9.9705   9.9752   9.9754

          k = 0.0000 0.0196 0.0000 (  6007 PWs)   bands (ev):

    -8.6435  -8.6203  -8.6010  -8.5346  -8.5346  -8.5346  -8.5039  -8.4834
    -8.4834  -8.4721  -8.4721  -8.4613  -8.4613  -8.4599  -8.4596  -8.4435
    -8.4417  -8.4307  -8.4289  -8.4289  -5.1241  -3.8908  -3.4094  -2.7755
     0.2033   0.2033   0.3574   3.6413   3.6413   3.6414   3.6784   3.7887
     3.7887   4.6780   5.7084   5.7084   6.4585   7.3803   7.4097   7.6835
     7.7215   7.7215   7.8202

          k = 0.0000 0.0392 0.0000 (  5995 PWs)   bands (ev):

    -8.6383  -8.6110  -8.5961  -8.5452  -8.5314  -8.5314  -8.5100  -8.4840
    -8.4840  -8.4758  -8.4758  -8.4656  -8.4582  -8.4582  -8.4581  -8.4453
    -8.4405  -8.4319  -8.4309  -8.4309  -5.0084  -3.8822  -3.6639  -2.7602
     0.2406   0.2406   0.7917   3.4325   3.4325   3.4599   3.5176   3.8495
     3.9445   3.9445   5.3600   5.3600   7.1235   7.5553   7.9590   7.9609
     8.2788   8.2788   8.4542

          k = 0.0000 0.0587 0.0000 (  5990 PWs)   bands (ev):

    -8.6326  -8.5968  -8.5908  -8.5607  -8.5277  -8.5277  -8.5166  -8.4848
    -8.4848  -8.4799  -8.4799  -8.4718  -8.4554  -8.4546  -8.4546  -8.4478
    -8.4388  -8.4336  -8.4335  -8.4335  -4.8464  -3.9473  -3.8736  -2.7447
     0.2803   0.2803   1.3764   3.0619   3.2442   3.2442   3.3001   3.3770
     4.1949   4.1949   4.9470   4.9470   7.4444   7.8870   8.2006   8.4316
     8.7852   8.9855   8.9855

          k = 0.0000-0.0783 0.0000 (  5942 PWs)   bands (ev):

    -8.6299  -8.5884  -8.5824  -8.5757  -8.5259  -8.5259  -8.5194  -8.4849
    -8.4849  -8.4818  -8.4818  -8.4744  -8.4530  -8.4527  -8.4527  -8.4503
    -8.4375  -8.4349  -8.4347  -8.4347  -4.7459  -4.0942  -3.8699  -2.7381
     0.2975   0.2975   1.8209   2.5554   3.1708   3.1708   3.2388   3.3234
     4.4662   4.4662   4.6148   4.6148   7.6934   7.7326   8.3290   8.5064
     9.4099   9.4099   9.6153

          k = 0.0196 0.0000 0.0196 (  5996 PWs)   bands (ev):

    -8.6398  -8.6201  -8.5982  -8.5413  -8.5344  -8.5279  -8.5039  -8.4883
    -8.4848  -8.4754  -8.4720  -8.4625  -8.4603  -8.4579  -8.4576  -8.4428
    -8.4422  -8.4317  -8.4306  -8.4287  -5.0804  -3.9694  -3.2917  -2.9226
     0.2225   0.3200   0.4163   3.3751   3.6675   3.6821   3.7318   3.7468
     3.8214   4.2756   5.5435   5.8006   6.6090   7.4003   7.5641   7.7073
     7.8072   7.9392   8.2266

          k = 0.0000 0.0392 0.0196 (  5992 PWs)   bands (ev):

    -8.6358  -8.6097  -8.5941  -8.5477  -8.5311  -8.5296  -8.5110  -8.4859
    -8.4858  -8.4785  -8.4760  -8.4667  -8.4574  -8.4568  -8.4567  -8.4448
    -8.4408  -8.4324  -8.4316  -8.4313  -4.9692  -3.9218  -3.6408  -2.8314
     0.2580   0.3757   0.7672   3.1242   3.4173   3.5730   3.6367   3.8126
     3.8196   3.9349   5.1974   5.5265   7.1486   7.7262   7.7301   8.1268
     8.2200   8.3750   8.8926

          k = 0.0391 0.0000 0.0196 (  5992 PWs)   bands (ev):

    -8.6323  -8.6159  -8.5922  -8.5499  -8.5312  -8.5237  -8.5072  -8.4946
    -8.4880  -8.4816  -8.4725  -8.4641  -8.4579  -8.4560  -8.4546  -8.4444
    -8.4407  -8.4338  -8.4331  -8.4298  -4.9584  -4.0817  -3.2790  -3.0624
     0.2616   0.3591   0.8155   3.1244   3.4177   3.5639   3.6345   3.8129
     3.8184   3.9361   5.1898   5.5303   7.1575   7.5771   7.8785   8.0563
     8.2507   8.4028   8.7995

          k = 0.0000 0.0587 0.0196 (  5992 PWs)   bands (ev):

    -8.6304  -8.5960  -8.5892  -8.5621  -8.5277  -8.5266  -8.5174  -8.4866
    -8.4864  -8.4824  -8.4801  -8.4726  -8.4542  -8.4538  -8.4535  -8.4472
    -8.4391  -8.4341  -8.4339  -8.4338  -4.8119  -3.9138  -3.9113  -2.8156
     0.3054   0.3756   1.3115   2.8684   2.9833   3.1632   3.5719   3.7057
     4.0476   4.2341   4.7804   5.0868   7.6245   7.9702   8.2996   8.3658
     8.6127   8.9536   9.1265

          k = 0.0587 0.0000 0.0196 (  5992 PWs)   bands (ev):

    -8.6222  -8.6124  -8.5839  -8.5623  -8.5255  -8.5172  -8.5123  -8.5021
    -8.4925  -8.4895  -8.4718  -8.4670  -8.4547  -8.4522  -8.4513  -8.4470
    -8.4385  -8.4364  -8.4361  -8.4322  -4.7672  -4.2810  -3.2600  -3.1721
     0.3093   0.3633   1.4049   2.8045   3.0007   3.1620   3.5707   3.7034
     4.0511   4.2385   4.7728   5.0817   7.7465   7.7490   8.3040   8.4310
     8.5816   8.9784   9.1537

          k = 0.0000-0.0783 0.0196 (  6004 PWs)   bands (ev):

    -8.6281  -8.5871  -8.5812  -8.5774  -8.5260  -8.5251  -8.5203  -8.4869
    -8.4866  -8.4842  -8.4821  -8.4753  -8.4520  -8.4520  -8.4519  -8.4493
    -8.4377  -8.4353  -8.4352  -8.4352  -4.7158  -4.0541  -3.9071  -2.8090
     0.3334   0.3675   1.7215   2.4087   2.9708   3.0297   3.5860   3.6111
     4.3363   4.4084   4.5810   4.6986   7.8908   7.9737   8.3232   8.6201
     9.0191   9.1133   9.8071

          k =-0.0783 0.0000 0.0196 (  6004 PWs)   bands (ev):

    -8.6142  -8.6141  -8.5744  -8.5741  -8.5188  -8.5187  -8.5096  -8.5096
    -8.4940  -8.4940  -8.4699  -8.4699  -8.4511  -8.4511  -8.4494  -8.4494
    -8.4382  -8.4382  -8.4351  -8.4351  -4.5298  -4.5268  -3.2305  -3.2299
     0.3469   0.3469   2.0843   2.0847   3.0047   3.0055   3.5967   3.5969
     4.3781   4.3796   4.6295   4.6309   7.9510   7.9527   8.3393   8.3395
     9.1733   9.1734  10.0824

          k = 0.0391 0.0000 0.0391 (  5976 PWs)   bands (ev):

    -8.6256  -8.6121  -8.5875  -8.5543  -8.5308  -8.5218  -8.5102  -8.5016
    -8.4891  -8.4837  -8.4752  -8.4667  -8.4548  -8.4546  -8.4527  -8.4441
    -8.4400  -8.4356  -8.4356  -8.4301  -4.8447  -4.1337  -3.2959  -3.2005
     0.3103   0.5892   0.8591   2.8821   3.0285   3.5004   3.5134   3.9288
     3.9363   4.0666   4.8226   5.6269   7.2355   7.7898   8.0904   8.4064
     8.4199   8.6560   9.2832

          k = 0.0000 0.0587 0.0391 (  6012 PWs)   bands (ev):

    -8.6243  -8.5951  -8.5847  -8.5659  -8.5274  -8.5231  -8.5196  -8.4917
    -8.4908  -8.4886  -8.4807  -8.4747  -8.4517  -8.4513  -8.4506  -8.4454
    -8.4396  -8.4358  -8.4351  -8.4347  -4.7124  -4.0199  -3.8151  -2.9966
     0.3825   0.6342   1.1415   2.4359   2.8410   3.1868   3.7087   3.9763
     4.1315   4.3311   4.4105   5.3084   7.6852   7.9814   8.3788   8.6455
     8.8266   9.1923   9.2662

          k = 0.0587 0.0000 0.0391 (  6012 PWs)   bands (ev):

    -8.6166  -8.6087  -8.5811  -8.5636  -8.5270  -8.5186  -8.5150  -8.5088
    -8.4915  -8.4886  -8.4757  -8.4704  -8.4524  -8.4508  -8.4504  -8.4456
    -8.4386  -8.4382  -8.4373  -8.4318  -4.6695  -4.2622  -3.3197  -3.3049
     0.3862   0.5770   1.2491   2.3784   2.8581   3.1875   3.7114   3.9741
     4.1281   4.3450   4.4023   5.3188   7.6213   8.1425   8.2896   8.5887
     8.9203   9.0857   9.2945

          k = 0.0000-0.0783 0.0391 (  6018 PWs)   bands (ev):

    -8.6222  -8.5829  -8.5828  -8.5782  -8.5262  -8.5222  -8.5221  -8.4920
    -8.4908  -8.4902  -8.4826  -8.4772  -8.4496  -8.4495  -8.4495  -8.4470
    -8.4383  -8.4366  -8.4363  -8.4361  -4.6290  -4.0109  -3.9366  -2.9969
[...]

    -8.6882  -8.6786  -8.6576  -8.6038  -8.5826  -8.5772  -8.5563  -8.5499
    -8.5479  -8.5469  -8.5404  -8.5332  -8.5199  -8.5181  -8.5167  -8.5057
    -8.5033  -8.4957  -8.4937  -8.4929  -5.1147  -4.3226  -3.2060  -2.9317
     0.2253   0.3221   0.7418   2.9700   3.3486   3.5146   3.5285   3.7419
     3.7587   3.9447   5.1196   5.5078   6.9415   7.5392   7.8688   7.9146
     8.1821   8.3105   8.6899

          k = 0.0000 0.0586 0.0195 (  6079 PWs)   bands (ev):

    -8.6893  -8.6643  -8.6508  -8.6098  -8.5770  -8.5761  -8.5715  -8.5523
    -8.5504  -8.5444  -8.5441  -8.5373  -8.5201  -8.5132  -8.5125  -8.5093
    -8.5009  -8.4984  -8.4979  -8.4922  -5.0365  -4.1609  -3.7650  -2.6809
     0.2538   0.3215   1.2818   2.7403   2.9323   3.1114   3.5125   3.6474
     3.8958   4.0507   4.8403   5.1007   7.3978   7.9586   8.0663   8.3258
     8.7327   8.8514   9.0452

          k = 0.0586 0.0000 0.0195 (  6079 PWs)   bands (ev):

    -8.6801  -8.6746  -8.6470  -8.6179  -8.5757  -8.5712  -8.5613  -8.5567
    -8.5537  -8.5534  -8.5404  -8.5368  -8.5158  -8.5150  -8.5137  -8.5079
    -8.5012  -8.4979  -8.4959  -8.4957  -4.9384  -4.5018  -3.1774  -3.0548
     0.2717   0.3244   1.3214   2.6189   3.0150   3.1006   3.4780   3.6140
     3.9920   4.2297   4.7070   5.0634   7.5438   7.6898   8.1684   8.3194
     8.5760   8.8836   9.0624

          k = 0.0000-0.0781 0.0195 (  6062 PWs)   bands (ev):

    -8.6878  -8.6585  -8.6472  -8.6159  -8.5755  -8.5734  -8.5729  -8.5558
    -8.5538  -8.5448  -8.5443  -8.5390  -8.5187  -8.5109  -8.5105  -8.5105
    -8.5003  -8.5001  -8.4998  -8.4927  -4.9810  -4.1574  -3.8642  -2.6731
     0.2807   0.3137   1.7361   2.2425   2.9236   2.9770   3.5213   3.5565
     4.0362   4.1930   4.6776   4.8541   7.6154   7.9065   8.1897   8.7428
     8.9202   9.0427   9.8778

          k =-0.0781 0.0000 0.0195 (  6070 PWs)   bands (ev):

    -8.6746  -8.6745  -8.6333  -8.6333  -8.5680  -8.5680  -8.5640  -8.5640
    -8.5564  -8.5564  -8.5393  -8.5393  -8.5131  -8.5131  -8.5112  -8.5112
    -8.4990  -8.4990  -8.4978  -8.4978  -4.7223  -4.7217  -3.1322  -3.1321
     0.3083   0.3083   1.9789   1.9792   2.9547   2.9549   3.5070   3.5071
     4.3165   4.3168   4.6153   4.6156   7.8639   7.8644   8.1826   8.1831
     9.0673   9.0676  10.0388

          k = 0.0391 0.0000 0.0391 (  6066 PWs)   bands (ev):

    -8.6825  -8.6749  -8.6518  -8.6089  -8.5814  -8.5750  -8.5589  -8.5549
    -8.5513  -8.5483  -8.5447  -8.5370  -8.5171  -8.5152  -8.5149  -8.5044
    -8.5037  -8.4975  -8.4946  -8.4943  -5.0109  -4.3804  -3.2165  -3.0622
     0.2749   0.6321   0.7056   2.6903   3.0726   3.4259   3.4625   3.6981
     3.9310   4.0676   4.7568   5.6167   6.9961   7.8240   8.0761   8.1925
     8.4128   8.5209   9.1797

          k = 0.0000 0.0586 0.0391 (  6082 PWs)   bands (ev):

    -8.6833  -8.6629  -8.6459  -8.6134  -8.5772  -8.5743  -8.5725  -8.5570
    -8.5503  -8.5496  -8.5489  -8.5398  -8.5172  -8.5115  -8.5097  -8.5078
    -8.5011  -8.5003  -8.4985  -8.4936  -4.9414  -4.2701  -3.6649  -2.8539
     0.3288   0.5710   1.1032   2.3168   2.7894   3.1392   3.6045   3.9082
     4.0770   4.1102   4.5183   5.2783   7.5001   7.9185   8.2174   8.5775
     8.7199   9.1645   9.2325

          k = 0.0586 0.0000 0.0391 (  6082 PWs)   bands (ev):

    -8.6755  -8.6715  -8.6429  -8.6194  -8.5763  -8.5716  -8.5632  -8.5609
    -8.5554  -8.5533  -8.5457  -8.5412  -8.5138  -8.5126  -8.5118  -8.5061
    -8.5015  -8.4991  -8.4971  -8.4960  -4.8534  -4.4985  -3.2279  -3.1727
     0.3534   0.5649   1.1486   2.2615   2.8326   3.1290   3.6518   3.8050
     3.9838   4.3405   4.3999   5.3231   7.3732   8.1760   8.1763   8.4922
     8.8194   9.0104   9.1558

          k = 0.0000-0.0781 0.0391 (  6090 PWs)   bands (ev):

    -8.6820  -8.6585  -8.6428  -8.6178  -8.5761  -8.5747  -8.5723  -8.5599
    -8.5533  -8.5498  -8.5493  -8.5414  -8.5161  -8.5092  -8.5087  -8.5075
    -8.5020  -8.5005  -8.5005  -8.4940  -4.8929  -4.2636  -3.7510  -2.8510
     0.3859   0.5021   1.4598   1.9234   2.8429   2.9521   3.7545   3.9629
     4.0372   4.0760   4.6212   4.9776   7.8948   8.0286   8.3599   8.6010
     8.6949   9.0612  10.0993

          k =-0.0781 0.0000 0.0391 (  6090 PWs)   bands (ev):

    -8.6711  -8.6711  -8.6318  -8.6318  -8.5691  -8.5690  -8.5671  -8.5671
    -8.5566  -8.5566  -8.5443  -8.5443  -8.5116  -8.5116  -8.5088  -8.5088
    -8.4996  -8.4996  -8.4982  -8.4982  -4.6694  -4.6688  -3.2228  -3.2228
     0.4544   0.4545   1.6959   1.6961   2.9006   2.9009   3.9052   3.9053
     3.9615   3.9618   4.8562   4.8565   7.8804   7.8805   8.6168   8.6171
     8.7774   8.7781  10.0741

          k = 0.0586 0.0000 0.0586 (  6058 PWs)   bands (ev):

    -8.6700  -8.6680  -8.6373  -8.6240  -8.5743  -8.5710  -8.5664  -8.5647
    -8.5576  -8.5525  -8.5521  -8.5463  -8.5111  -8.5104  -8.5086  -8.5045
    -8.5015  -8.5002  -8.4989  -8.4972  -4.7325  -4.5266  -3.2878  -3.2805
     0.4933   0.8897   0.9466   1.8072   2.8282   3.2447   3.3343   3.9304
     4.1146   4.2501   4.6965   5.3549   7.3749   8.0592   8.1421   8.7470
     9.2879   9.3014   9.6706

          k = 0.0000-0.0781 0.0586 (  6074 PWs)   bands (ev):

    -8.6739  -8.6603  -8.6363  -8.6221  -8.5764  -8.5758  -8.5690  -8.5626
    -8.5562  -8.5559  -8.5518  -8.5453  -8.5123  -8.5066  -8.5064  -8.5048
    -8.5034  -8.5016  -8.5015  -8.4962  -4.7573  -4.4173  -3.5721  -3.0908
     0.5669   0.7856   1.1310   1.5307   2.9122   3.0797   3.4116   3.6970
     4.4135   4.5325   4.7536   5.0489   7.8732   7.9275   7.9726   8.2142
     9.5076   9.6818  10.2428

          k =-0.0781 0.0000 0.0586 (  6074 PWs)   bands (ev):

    -8.6671  -8.6670  -8.6307  -8.6307  -8.5696  -8.5696  -8.5694  -8.5694
    -8.5570  -8.5570  -8.5503  -8.5503  -8.5095  -8.5095  -8.5058  -8.5058
    -8.5006  -8.5006  -8.4994  -8.4994  -4.6102  -4.6095  -3.3188  -3.3188
     0.6871   0.6872   1.3430   1.3432   2.9925   2.9928   3.5675   3.5679
     4.2893   4.2893   5.0785   5.0788   7.6532   7.6534   8.4268   8.4269
     9.5198   9.5203  10.0647

          k =-0.0781 0.0000-0.0781 (  6088 PWs)   bands (ev):

    -8.6652  -8.6651  -8.6306  -8.6306  -8.5701  -8.5701  -8.5693  -8.5693
    -8.5574  -8.5574  -8.5533  -8.5533  -8.5085  -8.5085  -8.5041  -8.5041
    -8.5014  -8.5014  -8.5004  -8.5004  -4.5832  -4.5826  -3.3608  -3.3608
     0.9700   0.9703   1.0140   1.0140   3.1751   3.1751   3.2790   3.2798
     4.4587   4.4587   5.1656   5.1659   7.5350   7.5353   8.2997   8.2997
    10.0614  10.1071  10.1075

          k =-0.0195 0.0390 0.0195 (  6061 PWs)   bands (ev):

    -8.6905  -8.6728  -8.6562  -8.6010  -8.5813  -8.5809  -8.5636  -8.5472
    -8.5458  -8.5455  -8.5450  -8.5344  -8.5212  -8.5160  -8.5157  -8.5069
    -8.5021  -8.4963  -8.4949  -8.4916  -5.1105  -4.2030  -3.5187  -2.7612
     0.3162   0.3300   0.7002   3.0966   3.1423   3.2009   3.6257   3.7898
     3.8590   3.8787   5.3634   5.3690   6.8535   7.7058   7.7436   7.7548
     8.2511   8.8617   8.8688

          k =-0.0195 0.0586 0.0195 (  6064 PWs)   bands (ev):

    -8.6872  -8.6635  -8.6492  -8.6108  -8.5767  -8.5762  -8.5718  -8.5529
    -8.5517  -8.5461  -8.5460  -8.5381  -8.5190  -8.5121  -8.5118  -8.5087
    -8.5009  -8.4992  -8.4976  -8.4926  -5.0048  -4.1943  -3.7324  -2.7390
     0.3230   0.3300   1.2049   2.5493   2.9375   3.0592   3.7400   3.7439
     3.8681   4.0639   4.9113   5.0386   7.3418   7.9544   8.2649   8.2911
     8.3939   8.9818   9.5507

          k =-0.0195-0.0781 0.0195 (  6064 PWs)   bands (ev):

    -8.6859  -8.6584  -8.6457  -8.6164  -8.5758  -8.5739  -8.5730  -8.5563
    -8.5550  -8.5464  -8.5464  -8.5397  -8.5177  -8.5099  -8.5098  -8.5095
    -8.5012  -8.5002  -8.4993  -8.4931  -4.9519  -4.1907  -3.8270  -2.7296
     0.3193   0.3357   1.6119   2.1047   2.8824   3.0159   3.6847   3.7096
     4.1030   4.1821   4.6018   4.8677   7.5593   8.1291   8.1926   8.7105
     8.9245   8.9467   9.6661

          k = 0.0391 0.0195 0.0391 (  6055 PWs)   bands (ev):

    -8.6815  -8.6731  -8.6501  -8.6099  -8.5807  -8.5755  -8.5613  -8.5549
    -8.5517  -8.5496  -8.5463  -8.5380  -8.5168  -8.5140  -8.5139  -8.5039
    -8.5039  -8.4977  -8.4945  -8.4945  -4.9849  -4.3756  -3.2730  -3.0507
     0.3413   0.6060   0.6537   2.5993   3.0485   3.3171   3.4021   3.8886
     3.9691   4.1514   4.9747   5.5409   6.8105   7.7972   7.8165   7.8622
     8.9344   8.9536   9.3432

          k =-0.0195 0.0586 0.0391 (  6088 PWs)   bands (ev):

    -8.6818  -8.6626  -8.6448  -8.6145  -8.5769  -8.5747  -8.5729  -8.5569
    -8.5519  -8.5514  -8.5504  -8.5410  -8.5163  -8.5104  -8.5092  -8.5071
    -8.5010  -8.5007  -8.4979  -8.4938  -4.9138  -4.2906  -3.6376  -2.8911
     0.3532   0.5311   1.0121   2.1327   2.8916   3.2053   3.6739   4.0142
     4.1245   4.1481   4.6832   5.2207   7.2345   7.9099   8.0494   8.3451
     8.8162   9.4551   9.4670

          k = 0.0586 0.0195 0.0391 (  6088 PWs)   bands (ev):

    -8.6749  -8.6702  -8.6420  -8.6199  -8.5763  -8.5720  -8.5653  -8.5610
    -8.5559  -8.5543  -8.5471  -8.5423  -8.5134  -8.5118  -8.5108  -8.5055
    -8.5015  -8.4992  -8.4968  -8.4960  -4.8326  -4.4910  -3.2616  -3.1662
     0.3704   0.5261   1.0569   2.0890   2.9457   3.1637   3.6745   3.9524
     4.0227   4.4195   4.5553   5.2570   7.1798   7.8812   8.1068   8.3387
     8.9584   9.2438   9.4919

          k =-0.0195-0.0781 0.0391 (  6080 PWs)   bands (ev):

    -8.6806  -8.6584  -8.6418  -8.6185  -8.5762  -8.5748  -8.5727  -8.5596
    -8.5549  -8.5517  -8.5508  -8.5424  -8.5153  -8.5081  -8.5078  -8.5067
    -8.5028  -8.5002  -8.4995  -8.4942  -4.8679  -4.2849  -3.7182  -2.8839
     0.3787   0.4728   1.3239   1.7760   2.8983   3.1187   3.9071   4.0430
     4.0968   4.2072   4.5628   4.9743   7.5301   8.0353   8.2258   8.5600
     8.7947   9.3045   9.6798

          k =-0.0781 0.0195 0.0391 (  6080 PWs)   bands (ev):

    -8.6703  -8.6702  -8.6315  -8.6315  -8.5703  -8.5703  -8.5671  -8.5671
    -8.5573  -8.5573  -8.5455  -8.5455  -8.5111  -8.5111  -8.5080  -8.5080
    -8.4996  -8.4995  -8.4980  -8.4980  -4.6555  -4.6549  -3.2332  -3.2331
     0.4326   0.4327   1.5542   1.5544   3.0093   3.0096   3.9423   3.9425
     4.1477   4.1481   4.8163   4.8167   7.6519   7.6520   8.5082   8.5083
     9.0339   9.0344   9.6865

          k = 0.0586 0.0195 0.0586 (  6063 PWs)   bands (ev):

    -8.6698  -8.6673  -8.6368  -8.6245  -8.5744  -8.5715  -8.5679  -8.5651
    -8.5581  -8.5534  -8.5533  -8.5472  -8.5107  -8.5098  -8.5077  -8.5038
    -8.5014  -8.5000  -8.4984  -8.4971  -4.7176  -4.5211  -3.2996  -3.2675
     0.4574   0.8162   0.8318   1.6365   2.9963   3.4167   3.4398   4.1571
     4.1600   4.2725   4.7149   5.3321   7.1803   7.8294   8.0286   8.3967
     9.3299   9.4972   9.7708

          k =-0.0195-0.0781 0.0586 (  6090 PWs)   bands (ev):

    -8.6731  -8.6605  -8.6360  -8.6230  -8.5764  -8.5758  -8.5701  -8.5621
    -8.5584  -8.5562  -8.5534  -8.5464  -8.5119  -8.5058  -8.5055  -8.5048
    -8.5028  -8.5010  -8.5006  -8.4963  -4.7396  -4.4239  -3.5476  -3.0990
     0.5039   0.7047   0.9991   1.3869   3.0299   3.3151   3.5803   3.9232
     4.4483   4.5531   4.7340   5.0526   7.4890   7.7691   7.9232   8.1717
     9.5581   9.6204   9.7664

          k =-0.0781 0.0195 0.0586 (  6090 PWs)   bands (ev):

    -8.6668  -8.6667  -8.6308  -8.6308  -8.5708  -8.5708  -8.5694  -8.5694
    -8.5577  -8.5577  -8.5512  -8.5512  -8.5091  -8.5091  -8.5051  -8.5051
    -8.5002  -8.5002  -8.4991  -8.4990  -4.6016  -4.6010  -3.3125  -3.3125
     0.6116   0.6117   1.2014   1.2016   3.1728   3.1732   3.7678   3.7682
     4.3105   4.3105   5.0756   5.0759   7.4695   7.4697   8.2491   8.2492
     9.5626   9.5630   9.7923

          k =-0.0781 0.0195-0.0781 (  6072 PWs)   bands (ev):

    -8.6651  -8.6650  -8.6306  -8.6306  -8.5706  -8.5706  -8.5701  -8.5701
    -8.5580  -8.5580  -8.5538  -8.5538  -8.5082  -8.5082  -8.5033  -8.5033
    -8.5008  -8.5008  -8.5000  -8.5000  -4.5773  -4.5767  -3.3473  -3.3473
     0.8727   0.8727   0.8743   0.8746   3.4074   3.4074   3.4675   3.4682
     4.4636   4.4636   5.1755   5.1758   7.3759   7.3762   8.1258   8.1258
     9.8846   9.8917   9.8922

          k =-0.0391 0.0586 0.0391 (  6060 PWs)   bands (ev):

    -8.6774  -8.6620  -8.6414  -8.6180  -8.5754  -8.5753  -8.5736  -8.5569
    -8.5563  -8.5552  -8.5538  -8.5441  -8.5139  -8.5080  -8.5076  -8.5051
    -8.5011  -8.5006  -8.4973  -8.4945  -4.8352  -4.3525  -3.5589  -2.9928
     0.4150   0.4807   0.8036   1.7344   3.1146   3.4376   3.7702   4.2197
     4.2476   4.2870   4.9624   5.1235   6.8316   7.7302   7.8203   8.0479
     9.2718   9.6378   9.6824

          k =-0.0391-0.0781 0.0391 (  6054 PWs)   bands (ev):

    -8.6766  -8.6588  -8.6393  -8.6208  -8.5765  -8.5743  -8.5734  -8.5588
    -8.5574  -8.5566  -8.5543  -8.5455  -8.5130  -8.5057  -8.5055  -8.5049
    -8.5038  -8.4996  -8.4987  -8.4947  -4.7968  -4.3477  -3.6236  -2.9803
     0.3676   0.4551   1.0299   1.4398   3.0986   3.4673   4.2208   4.2690
     4.2817   4.3029   4.5143   5.0089   7.1586   7.6950   7.8281   8.3317
     9.2391   9.5063   9.5727

          k = 0.0586 0.0390 0.0586 (  6049 PWs)   bands (ev):

    -8.6689  -8.6653  -8.6354  -8.6256  -8.5744  -8.5724  -8.5712  -8.5660
    -8.5591  -8.5562  -8.5553  -8.5495  -8.5097  -8.5081  -8.5053  -8.5020
    -8.5009  -8.4997  -8.4974  -8.4969  -4.6799  -4.5075  -3.3305  -3.2353
     0.4073   0.5952   0.6583   1.2819   3.4361   3.6497   3.8097   4.3162
     4.3319   4.6406   4.7525   5.2713   6.7003   7.3714   7.8022   7.9235
     9.4548   9.6366   9.6781

          k =-0.0391-0.0781 0.0586 (  6070 PWs)   bands (ev):

    -8.6708  -8.6610  -8.6351  -8.6249  -8.5765  -8.5752  -8.5720  -8.5626
    -8.5609  -8.5582  -8.5563  -8.5494  -8.5103  -8.5055  -8.5032  -8.5029
    -8.5014  -8.4999  -8.4989  -8.4962  -4.6907  -4.4461  -3.4791  -3.1284
     0.3883   0.5494   0.7305   1.0719   3.3852   3.8369   4.0158   4.3635
     4.5502   4.6105   4.6746   5.0794   6.9260   7.3334   7.4903   7.9351
     9.5484   9.6313   9.7382

          k =-0.0781 0.0390 0.0586 (  6070 PWs)   bands (ev):

    -8.6659  -8.6658  -8.6307  -8.6307  -8.5728  -8.5728  -8.5701  -8.5701
    -8.5592  -8.5592  -8.5532  -8.5532  -8.5080  -8.5080  -8.5030  -8.5030
    -8.4993  -8.4993  -8.4983  -8.4983  -4.5805  -4.5799  -3.2973  -3.2973
     0.4651   0.4651   0.9120   0.9121   3.6058   3.6063   4.2021   4.2023
     4.3981   4.3983   5.0618   5.0621   7.0150   7.0152   7.8296   7.8296
     9.5911   9.5918   9.6836

          k =-0.0781 0.0390-0.0781 (  6044 PWs)   bands (ev):

    -8.6648  -8.6647  -8.6307  -8.6307  -8.5719  -8.5719  -8.5716  -8.5716
    -8.5594  -8.5594  -8.5552  -8.5552  -8.5074  -8.5074  -8.5013  -8.5013
    -8.4992  -8.4992  -8.4990  -8.4990  -4.5630  -4.5623  -3.3139  -3.3139
     0.5956   0.5956   0.6783   0.6785   3.9338   3.9345   3.9468   3.9468
     4.4757   4.4757   5.1997   5.2000   6.9369   6.9371   7.6361   7.6361
     9.7576   9.7582   9.8235

          k =-0.0586-0.0781 0.0586 (  6032 PWs)   bands (ev):

    -8.6677  -8.6622  -8.6333  -8.6277  -8.5761  -8.5741  -8.5735  -8.5673
    -8.5603  -8.5602  -8.5581  -8.5529  -8.5083  -8.5057  -8.5009  -8.5002
    -8.4994  -8.4992  -8.4980  -8.4965  -4.6219  -4.4879  -3.3812  -3.1872
     0.3184   0.4674   0.4861   0.7572   3.8386   4.4346   4.4364   4.5599
     4.6996   4.7084   4.7136   5.1650   6.4489   6.7729   7.0468   7.4785
     9.6090   9.7245   9.8242

          k =-0.0781 0.0586-0.0781 (  6028 PWs)   bands (ev):

    -8.6645  -8.6644  -8.6310  -8.6310  -8.5737  -8.5736  -8.5726  -8.5726
    -8.5607  -8.5607  -8.5567  -8.5567  -8.5066  -8.5066  -8.4995  -8.4995
    -8.4981  -8.4981  -8.4978  -8.4978  -4.5484  -4.5478  -3.2790  -3.2790
     0.3695   0.3695   0.5141   0.5143   4.4880   4.4880   4.5011   4.5018
     4.5475   4.5475   5.2246   5.2249   6.3675   6.3678   7.0396   7.0396
     9.8007   9.8008   9.9252

     the Fermi energy is     5.8238 ev

!    total energy              =   -2690.47124223 Ry
     Harris-Foulkes estimate   =   -2690.47124223 Ry
     estimated scf accuracy    <          2.5E-10 Ry

     total all-electron energy =    -82024.267787 Ry

     The total energy is the sum of the following terms:

     one-electron contribution =    -244.57514401 Ry
     hartree contribution      =     155.76686495 Ry
     xc contribution           =    -217.65503772 Ry
     ewald contribution        =    -328.01407765 Ry
     one-center paw contrib.   =   -2055.99384560 Ry
     smearing contrib. (-TS)   =      -0.00000220 Ry

     convergence has been achieved in  10 iterations

     Forces acting on atoms (Ry/au):

     atom    1 type  1   force =     0.00000475    0.00000539   -0.00000475
     atom    2 type  1   force =     0.00000475   -0.00000539    0.00000475
     atom    3 type  1   force =    -0.00000475    0.00000539    0.00000475
     atom    4 type  1   force =    -0.00000475   -0.00000539   -0.00000475
     atom    5 type  2   force =     0.00000000    0.00000000    0.00000000
     atom    6 type  3   force =     0.00000000    0.00000000    0.00000000
     atom    7 type  2   force =     0.00000000    0.00000000    0.00000000
     atom    8 type  3   force =     0.00000000    0.00000000    0.00000000

     Total force =     0.000017     Total SCF correction =     0.000040
     SCF correction compared to forces is large: reduce conv_thr to get better values


     entering subroutine stress ...

          total   stress  (Ry/bohr**3)                   (kbar)     P=   -0.26
  -0.00000246   0.00000000   0.00000000         -0.36      0.00      0.00
   0.00000000  -0.00000032   0.00000000          0.00     -0.05      0.00
   0.00000000   0.00000000  -0.00000246          0.00      0.00     -0.36


     init_run     :     12.09s CPU     12.89s WALL (       2 calls)
     electrons    :   1455.77s CPU   1518.44s WALL (       9 calls)
     update_pot   :     17.02s CPU     18.06s WALL (       7 calls)
     forces       :     22.66s CPU     22.81s WALL (       9 calls)
     stress       :     51.44s CPU     52.07s WALL (       9 calls)

     Called by init_run:
     wfcinit      :      8.53s CPU      8.83s WALL (       2 calls)
     potinit      :      1.43s CPU      1.45s WALL (       2 calls)

     Called by electrons:
     c_bands      :   1302.09s CPU   1360.82s WALL (      83 calls)
     sum_band     :    120.30s CPU    122.13s WALL (      83 calls)
     v_of_rho     :      1.18s CPU      1.19s WALL (      90 calls)
     newd         :      5.28s CPU      6.15s WALL (      90 calls)
     PAW_pot      :     32.59s CPU     34.02s WALL (      97 calls)
     mix_rho      :      0.18s CPU      0.20s WALL (      83 calls)

     Called by c_bands:
     init_us_2    :     13.08s CPU     13.04s WALL (   14475 calls)
     cegterg      :   1262.63s CPU   1321.11s WALL (    6225 calls)

     Called by sum_band:
     sum_band:bec :      1.08s CPU      0.91s WALL (    6750 calls)
     addusdens    :      5.59s CPU      6.66s WALL (      83 calls)

     Called by *egterg:
     h_psi        :    640.33s CPU    644.29s WALL (   25200 calls)
     s_psi        :     42.50s CPU     42.80s WALL (   25200 calls)
     g_psi        :      3.06s CPU      3.05s WALL (   18825 calls)
     cdiaghg      :    413.70s CPU    440.11s WALL (   24375 calls)

     Called by h_psi:
     add_vuspsi   :     45.32s CPU     45.27s WALL (   25200 calls)

     General routines
     calbec       :    100.72s CPU    101.12s WALL (   35325 calls)
     fft          :      1.47s CPU      1.47s WALL (    1399 calls)
     fftw         :    579.13s CPU    581.78s WALL ( 1834441 calls)

     Parallel routines
     fft_scatter  :    214.99s CPU    208.48s WALL ( 1835840 calls)

     PWSCF        : 26m 6.04s CPU    27m12.90s WALL


   This run was terminated on:  17:48: 8  30Nov2016            

=------------------------------------------------------------------------------=
   JOB DONE.
=------------------------------------------------------------------------------=
